/*--------------------------------*- C++ -*----------------------------------*\
| =========                 |                                                 |
| \\      /  F ield         | OpenFOAM: The Open Source CFD Toolbox           |
|  \\    /   O peration     | Version:  2106                                  |
|   \\  /    A nd           | Website:  www.openfoam.com                      |
|    \\/     M anipulation  |                                                 |
\*---------------------------------------------------------------------------*/
FoamFile
{
    version     2.0;
    format      ascii;
    arch        "LSB;label=32;scalar=64";
    class       volVectorField;
    location    "0";
    object      vorticity;
}
// * * * * * * * * * * * * * * * * * * * * * * * * * * * * * * * * * * * * * //

dimensions      [0 0 -1 0 0 0 0];

internalField   nonuniform List<vector> 
40720
(
(-1.5299441e-18 -7.6497203e-18 -0.99707324)
(2.1863902e-17 1.0931951e-16 -5.9579133e-15)
(-2.1076682e-18 -1.0538341e-17 1.9759389e-16)
(0 -0 -1.3535571e-14)
(2.6558445e-19 1.3279223e-18 -1.3817031e-14)
(0 -0 6.0102425e-15)
(0 -0 3.5835283e-16)
(-1.5611359e-21 -7.8056795e-21 1.319234e-14)
(3.1224166e-21 1.5612083e-20 -6.7757221e-15)
(-1.0408047e-21 -5.2040233e-21 -7.4485186e-16)
(0 -0 9.6252186e-15)
(0 -0 1.2510174e-14)
(-3.2524802e-23 -1.6262401e-22 -1.1704745e-15)
(4.8787193e-23 2.4393596e-22 -8.9054241e-16)
(0 -0 1.4798721e-14)
(8.1311997e-24 4.0655998e-23 7.1243403e-15)
(0 -0 7.1963697e-15)
(-1.0164e-24 -5.0820001e-24 -6.9169839e-15)
(0 -0 -1.5278917e-16)
(1.588125e-26 7.9406252e-26 -3.8142725e-16)
(0 -0 -7.628545e-16)
(0 -0 7.3611639e-16)
(1.588125e-26 7.9406251e-26 1.323809e-15)
(0 -0 0)
(0 -0 0)
(0 -0 -1.364189e-14)
(0 -0 0)
(0 -0 0)
(0 -0 0)
(0 -0 1.364189e-14)
(0 -0 0)
(0 -0 0)
(0 -0 0)
(0 -0 0)
(0 -0 0)
(0 -0 1.364189e-14)
(0 -0 0)
(0 -0 0)
(0 -0 0)
(0 -0 0)
(0 -0 0)
(0 -0 0)
(0 -0 0)
(0 -0 0)
(0 -0 0)
(0 -0 0)
(0 -0 0)
(0 -0 0)
(0 -0 0)
(0 -0 0)
(0 -0 1.364189e-14)
(0 -0 0)
(0 -0 0)
(0 -0 0)
(0 -0 0)
(0 -0 0)
(0 -0 0)
(0 -0 0)
(0 -0 -1.364189e-14)
(0 -0 0)
(0 -0 0)
(0 -0 0)
(0 -0 0)
(0 -0 0)
(0 -0 0)
(0 -0 0)
(0 -0 0)
(0 -0 0)
(0 -0 0)
(0 -0 0)
(0 -0 0)
(0 -0 0)
(0 -0 0)
(0 -0 0)
(0 -0 0)
(0 -0 0)
(0 -0 0)
(0 -0 0)
(0 -0 0)
(0 -0 0)
(0 -0 0)
(0 -0 0)
(0 -0 0)
(0 -0 0)
(0 -0 0)
(0 -0 0)
(0 -0 0)
(0 -0 0)
(0 -0 0)
(0 -0 0)
(0 -0 0)
(0 -0 0)
(0 -0 0)
(0 -0 0)
(0 -0 0)
(0 -0 0)
(0 -0 0)
(0 -0 0)
(0 -0 0)
(0 -0 0)
(0 -0 0)
(0 -0 0)
(0 -0 0)
(0 -0 0)
(0 -0 0)
(0 -0 0)
(0 -0 0)
(0 -0 0)
(0 -0 0)
(0 -0 0)
(0 -0 0)
(0 -0 0)
(0 -0 0)
(0 -0 0)
(0 -0 0)
(0 -0 0)
(0 -0 0)
(0 -0 0)
(0 -0 0)
(0 -0 0)
(0 -0 0)
(0 -0 0)
(0 -0 0)
(0 -0 0)
(0 -0 0)
(0 -0 0)
(0 -0 0)
(0 -0 0)
(0 -0 0)
(0 -0 0)
(0 -0 0)
(0 -0 0)
(0 -0 0)
(0 -0 0)
(0 -0 0)
(0 -0 0)
(0 -0 0)
(0 -0 0)
(0 -0 0)
(0 -0 0)
(0 -0 0)
(0 -0 0)
(0 -0 0)
(0 -0 0)
(0 -0 0)
(0 -0 0)
(0 -0 0)
(0 -0 0)
(0 -0 0)
(0 -0 0)
(0 -0 0)
(0 -0 0)
(0 -0 0)
(0 -0 0)
(0 -0 0)
(0 -0 0)
(0 -0 0)
(0 -0 0)
(0 -0 0)
(0 -0 0)
(0 -0 0)
(0 -0 0)
(0 -0 0)
(0 -0 0)
(0 -0 0)
(0 -0 0)
(0 -0 0)
(0 -0 0)
(0 -0 0)
(0 -0 0)
(0 -0 0)
(0 -0 0)
(0 -0 0)
(0 -0 0)
(0 -0 0)
(0 -0 0)
(0 -0 0)
(-1.588125e-26 -7.9406251e-26 -1.323809e-15)
(0 -0 -7.3611639e-16)
(-3.1762501e-26 -1.588125e-25 7.628545e-16)
(-1.588125e-26 -7.9406252e-26 3.8142725e-16)
(0 -0 1.5278917e-16)
(0 -0 9.6038907e-17)
(-4.0656e-24 -2.0328e-23 -3.7542482e-16)
(8.1311994e-24 4.0655997e-23 -3.0339558e-16)
(0 -0 -1.1568321e-15)
(1.6262398e-23 8.1311989e-23 8.9054242e-16)
(3.2524801e-23 1.62624e-22 1.1704741e-15)
(-2.6019873e-22 -1.3009936e-21 7.9526862e-15)
(0 -0 -2.8042425e-15)
(0 -0 7.5658693e-15)
(2.081611e-21 1.0408055e-20 1.2785255e-15)
(-2.0815146e-21 -1.0407573e-20 5.946022e-15)
(0 -0 -3.5856093e-16)
(0 -0 1.7716326e-15)
(2.6558443e-19 1.3279222e-18 4.7589411e-15)
(0 -0 -5.2186925e-16)
(2.1076679e-18 1.0538339e-17 7.4558752e-15)
(4.3727793e-18 2.1863896e-17 7.2150858e-15)
(0 -0 6.069783e-15)
(-9.436193e-19 -4.7180965e-18 -1.0607253)
(-8.8087504e-18 -4.4043752e-17 -1.1010938e-16)
(2.0966395e-18 1.0483198e-17 1.8345596e-16)
(0 -0 4.8542344e-15)
(-2.6346871e-19 -1.3173435e-18 9.0205099e-15)
(0 -0 -3.3372543e-15)
(0 -0 -5.6749837e-15)
(5.1699925e-22 2.5849962e-21 -9.3786248e-16)
(-3.1024484e-21 -1.5512242e-20 7.6465335e-15)
(1.5512775e-21 7.7563877e-21 7.7931983e-15)
(-5.1709479e-22 -2.585474e-21 5.3326661e-15)
(0 -0 -6.9126687e-15)
(-1.6159179e-23 -8.0795896e-23 -4.2975729e-15)
(-1.6159173e-23 -8.0795863e-23 6.6523973e-15)
(0 -0 -1.5621122e-15)
(4.0397927e-24 2.0198964e-23 6.0781941e-16)
(2.0198964e-24 1.0099482e-23 -7.7796551e-15)
(5.049741e-25 2.5248705e-24 1.3186591e-15)
(0 -0 1.569161e-15)
(-1.5780441e-26 -7.8902205e-26 -1.6944119e-15)
(0 -0 -1.6944119e-15)
(0 -0 1.6944119e-15)
(-1.5780441e-26 -7.8902205e-26 0)
(0 -0 0)
(0 -0 0)
(0 -0 0)
(0 -0 0)
(0 -0 0)
(0 -0 0)
(0 -0 0)
(0 -0 0)
(0 -0 0)
(0 -0 0)
(0 -0 0)
(0 -0 0)
(0 -0 0)
(0 -0 0)
(0 -0 0)
(0 -0 0)
(0 -0 0)
(0 -0 0)
(0 -0 0)
(0 -0 0)
(0 -0 0)
(0 -0 0)
(0 -0 0)
(0 -0 0)
(0 -0 0)
(0 -0 0)
(0 -0 0)
(0 -0 0)
(0 -0 0)
(0 -0 0)
(0 -0 0)
(0 -0 0)
(0 -0 0)
(0 -0 0)
(0 -0 0)
(0 -0 0)
(0 -0 0)
(0 -0 0)
(0 -0 0)
(0 -0 0)
(0 -0 0)
(0 -0 0)
(0 -0 0)
(0 -0 0)
(0 -0 0)
(0 -0 0)
(0 -0 0)
(0 -0 0)
(0 -0 0)
(0 -0 0)
(0 -0 0)
(0 -0 0)
(0 -0 0)
(0 -0 0)
(0 -0 0)
(0 -0 0)
(0 -0 0)
(0 -0 0)
(0 -0 0)
(0 -0 0)
(0 -0 0)
(0 -0 0)
(0 -0 0)
(0 -0 0)
(0 -0 0)
(0 -0 0)
(0 -0 0)
(0 -0 0)
(0 -0 0)
(0 -0 0)
(0 -0 0)
(0 -0 0)
(0 -0 0)
(0 -0 0)
(0 -0 0)
(0 -0 0)
(0 -0 0)
(0 -0 0)
(0 -0 0)
(0 -0 0)
(0 -0 0)
(0 -0 0)
(0 -0 0)
(0 -0 0)
(0 -0 0)
(0 -0 0)
(0 -0 0)
(0 -0 0)
(0 -0 0)
(0 -0 0)
(0 -0 0)
(0 -0 0)
(0 -0 0)
(0 -0 0)
(0 -0 0)
(0 -0 0)
(0 -0 0)
(0 -0 0)
(0 -0 0)
(0 -0 0)
(0 -0 0)
(0 -0 0)
(0 -0 0)
(0 -0 0)
(0 -0 0)
(0 -0 0)
(0 -0 0)
(0 -0 0)
(0 -0 0)
(0 -0 0)
(0 -0 0)
(0 -0 0)
(0 -0 0)
(0 -0 0)
(0 -0 0)
(0 -0 0)
(0 -0 0)
(0 -0 0)
(0 -0 0)
(0 -0 0)
(0 -0 0)
(0 -0 0)
(0 -0 0)
(0 -0 0)
(0 -0 0)
(0 -0 0)
(0 -0 0)
(0 -0 0)
(0 -0 0)
(0 -0 0)
(0 -0 0)
(0 -0 0)
(0 -0 0)
(0 -0 0)
(0 -0 0)
(0 -0 0)
(0 -0 0)
(0 -0 0)
(0 -0 0)
(0 -0 0)
(0 -0 0)
(0 -0 0)
(0 -0 0)
(0 -0 0)
(0 -0 0)
(0 -0 0)
(0 -0 0)
(0 -0 0)
(0 -0 0)
(0 -0 0)
(0 -0 0)
(0 -0 0)
(0 -0 0)
(0 -0 0)
(1.5780441e-26 7.8902205e-26 0)
(0 -0 -1.6944119e-15)
(3.1560882e-26 1.5780441e-25 1.6944119e-15)
(1.5780441e-26 7.8902205e-26 1.6944119e-15)
(0 -0 -1.569161e-15)
(0 -0 -1.3186591e-15)
(4.0397929e-24 2.0198964e-23 1.0020074e-15)
(-1.2119378e-23 -6.0596888e-23 -6.0781938e-16)
(-1.6159171e-23 -8.0795857e-23 1.5621123e-15)
(-2.5248707e-25 -1.2624353e-24 1.2525094e-16)
(0 -0 -2.4800781e-15)
(2.5854714e-22 1.2927357e-21 -6.6426472e-15)
(0 -0 1.4449988e-15)
(0 -0 -7.793198e-15)
(-2.068299e-21 -1.0341495e-20 1.2685673e-14)
(1.0339985e-21 5.1699924e-21 9.3786247e-16)
(0 -0 -7.8713916e-15)
(2.6423888e-19 1.3211944e-18 8.4106408e-15)
(-5.2693735e-19 -2.6346867e-18 -7.2108083e-15)
(0 -0 -8.0838387e-15)
(-6.2899164e-18 -3.1449582e-17 -4.9795172e-15)
(0 -0 -6.3037582e-15)
(-4.3736794e-18 -2.1868397e-17 -1.7494718e-15)
(8.9718606e-19 4.4859303e-18 -1.0759621)
(4.193855e-18 2.0969275e-17 -1.677542e-15)
(0 -0 5.8971863e-15)
(0 -0 -4.2631305e-15)
(0 -0 8.3249351e-16)
(0 -0 -2.2499132e-15)
(0 -0 1.508146e-15)
(0 -0 -7.3584259e-15)
(9.9118144e-22 4.9559072e-21 -7.194713e-15)
(1.2342065e-22 6.1710324e-22 -2.4418189e-15)
(1.0799343e-22 5.3996714e-22 2.8176527e-15)
(7.7137995e-24 3.8568997e-23 -6.3346582e-15)
(1.5427577e-23 7.7137885e-23 7.816729e-17)
(-7.7137847e-24 -3.8568923e-23 -2.6038464e-16)
(-1.6873903e-24 -8.4369513e-24 1.1958022e-16)
(6.7495612e-24 3.3747806e-23 1.0197967e-15)
(-2.4105576e-24 -1.2052788e-23 1.2589572e-15)
(4.8211154e-25 2.4105577e-24 -1.7372781e-15)
(2.4105577e-25 1.2052789e-24 -1.1958023e-16)
(0 -0 0)
(0 -0 0)
(0 -0 0)
(0 -0 0)
(0 -0 0)
(0 -0 0)
(0 -0 0)
(0 -0 0)
(0 -0 0)
(0 -0 0)
(0 -0 0)
(0 -0 0)
(0 -0 0)
(0 -0 0)
(0 -0 0)
(0 -0 0)
(0 -0 0)
(0 -0 0)
(0 -0 0)
(0 -0 0)
(0 -0 0)
(0 -0 0)
(0 -0 0)
(0 -0 0)
(0 -0 0)
(0 -0 0)
(0 -0 0)
(0 -0 0)
(0 -0 0)
(0 -0 0)
(0 -0 0)
(0 -0 0)
(0 -0 0)
(0 -0 0)
(0 -0 0)
(0 -0 0)
(0 -0 0)
(0 -0 0)
(0 -0 0)
(0 -0 0)
(0 -0 0)
(0 -0 0)
(0 -0 0)
(0 -0 0)
(0 -0 0)
(0 -0 0)
(0 -0 0)
(0 -0 0)
(0 -0 0)
(0 -0 0)
(0 -0 0)
(0 -0 0)
(0 -0 0)
(0 -0 0)
(0 -0 0)
(0 -0 0)
(0 -0 0)
(0 -0 0)
(0 -0 0)
(0 -0 0)
(0 -0 0)
(0 -0 0)
(0 -0 0)
(0 -0 0)
(0 -0 0)
(0 -0 0)
(0 -0 0)
(0 -0 0)
(0 -0 0)
(0 -0 0)
(0 -0 0)
(0 -0 0)
(0 -0 0)
(0 -0 0)
(0 -0 0)
(0 -0 0)
(0 -0 0)
(0 -0 0)
(0 -0 0)
(0 -0 0)
(0 -0 0)
(0 -0 0)
(0 -0 0)
(0 -0 0)
(0 -0 0)
(0 -0 0)
(0 -0 0)
(0 -0 0)
(0 -0 0)
(0 -0 0)
(0 -0 0)
(0 -0 0)
(0 -0 0)
(0 -0 0)
(0 -0 0)
(0 -0 0)
(0 -0 0)
(0 -0 0)
(0 -0 0)
(0 -0 0)
(0 -0 0)
(0 -0 0)
(0 -0 0)
(0 -0 0)
(0 -0 0)
(0 -0 0)
(0 -0 0)
(0 -0 0)
(0 -0 0)
(0 -0 0)
(0 -0 0)
(0 -0 0)
(0 -0 0)
(0 -0 0)
(0 -0 0)
(0 -0 0)
(0 -0 0)
(0 -0 0)
(0 -0 0)
(0 -0 0)
(0 -0 0)
(0 -0 0)
(0 -0 0)
(0 -0 0)
(0 -0 0)
(0 -0 0)
(0 -0 0)
(0 -0 0)
(0 -0 0)
(0 -0 0)
(0 -0 0)
(0 -0 0)
(0 -0 0)
(0 -0 0)
(0 -0 0)
(0 -0 0)
(0 -0 0)
(0 -0 0)
(0 -0 0)
(0 -0 0)
(0 -0 0)
(0 -0 0)
(0 -0 0)
(0 -0 0)
(0 -0 0)
(0 -0 0)
(0 -0 0)
(0 -0 0)
(0 -0 0)
(0 -0 0)
(0 -0 0)
(0 -0 0)
(0 -0 0)
(0 -0 0)
(0 -0 0)
(0 -0 0)
(0 -0 0)
(0 -0 0)
(0 -0 0)
(0 -0 0)
(0 -0 0)
(0 -0 0)
(-2.4105577e-25 -1.2052789e-24 1.1958023e-16)
(-2.4105577e-25 -1.2052789e-24 1.7372781e-15)
(0 -0 -1.2589572e-15)
(2.892669e-24 1.4463345e-23 -1.0197967e-15)
(-2.4105575e-25 -1.2052788e-24 -1.1958022e-16)
(7.9548401e-24 3.9774201e-23 2.6038462e-16)
(-3.0855154e-23 -1.5427577e-22 -7.8167291e-17)
(6.1710398e-23 3.0855199e-22 6.3346583e-15)
(0 -0 1.0123983e-14)
(0 -0 1.5383412e-14)
(9.9118146e-22 4.9559073e-21 -5.7463494e-15)
(0 -0 8.8913727e-16)
(7.8919206e-21 3.9459603e-20 1.1421977e-14)
(0 -0 7.5587944e-16)
(-5.021638e-19 -2.510819e-18 7.7443073e-16)
(-7.4791748e-19 -3.7395874e-18 6.0955274e-15)
(2.9890689e-18 1.4945345e-17 -5.8971839e-15)
(2.0969262e-18 1.0484631e-17 6.8281159e-15)
(0 -0 1.6861898e-15)
(0 -0 -1.0821681)
(-5.2411339e-19 -2.6205669e-18 -6.0993695e-15)
(7.4793209e-19 3.7396604e-18 4.0512988e-16)
(1.2497577e-19 6.2487883e-19 1.2341357e-14)
(1.2601342e-19 6.300671e-19 -6.6456328e-15)
(1.5824945e-20 7.9124723e-20 -7.405085e-15)
(-1.5857392e-20 -7.9286959e-20 -1.2351422e-15)
(0 -0 8.391202e-15)
(-4.9988719e-22 -2.4994359e-21 -5.6587578e-16)
(-1.2400816e-22 -6.200408e-22 9.9136385e-16)
(-9.3006303e-23 -4.6503152e-22 -9.7316138e-16)
(-2.3251511e-23 -1.1625755e-22 -5.1159739e-15)
(-7.7504916e-24 -3.8752458e-23 -1.1583221e-15)
(0 -0 -6.4594503e-15)
(-2.4220274e-25 -1.2110137e-24 -6.496379e-16)
(-9.68811e-25 -4.844055e-24 -7.354588e-16)
(2.4220276e-25 1.2110138e-24 4.951604e-16)
(-2.4220276e-25 -1.2110138e-24 -7.3545884e-16)
(-2.4220277e-25 -1.2110138e-24 1.6253953e-15)
(0 -0 -1.1302348e-15)
(0 -0 0)
(0 -0 0)
(0 -0 0)
(0 -0 0)
(0 -0 0)
(0 -0 0)
(0 -0 0)
(0 -0 0)
(0 -0 0)
(0 -0 0)
(0 -0 0)
(0 -0 0)
(0 -0 0)
(0 -0 0)
(0 -0 0)
(0 -0 0)
(0 -0 0)
(0 -0 0)
(0 -0 0)
(0 -0 0)
(0 -0 0)
(0 -0 0)
(0 -0 0)
(0 -0 0)
(0 -0 0)
(0 -0 0)
(0 -0 0)
(0 -0 0)
(0 -0 0)
(0 -0 0)
(0 -0 0)
(0 -0 0)
(0 -0 0)
(0 -0 0)
(0 -0 0)
(0 -0 0)
(0 -0 0)
(0 -0 0)
(0 -0 0)
(0 -0 0)
(0 -0 0)
(0 -0 0)
(0 -0 0)
(0 -0 0)
(0 -0 0)
(0 -0 0)
(0 -0 0)
(0 -0 0)
(0 -0 0)
(0 -0 0)
(0 -0 0)
(0 -0 0)
(0 -0 0)
(0 -0 0)
(0 -0 0)
(0 -0 0)
(0 -0 0)
(0 -0 0)
(0 -0 0)
(0 -0 0)
(0 -0 0)
(0 -0 0)
(0 -0 0)
(0 -0 0)
(0 -0 0)
(0 -0 0)
(0 -0 0)
(0 -0 0)
(0 -0 0)
(0 -0 0)
(0 -0 0)
(0 -0 0)
(0 -0 0)
(0 -0 0)
(0 -0 0)
(0 -0 0)
(0 -0 0)
(0 -0 0)
(0 -0 0)
(0 -0 0)
(0 -0 0)
(0 -0 0)
(0 -0 0)
(0 -0 0)
(0 -0 0)
(0 -0 0)
(0 -0 0)
(0 -0 0)
(0 -0 0)
(0 -0 0)
(0 -0 0)
(0 -0 0)
(0 -0 0)
(0 -0 0)
(0 -0 0)
(0 -0 0)
(0 -0 0)
(0 -0 0)
(0 -0 0)
(0 -0 0)
(0 -0 0)
(0 -0 0)
(0 -0 0)
(0 -0 0)
(0 -0 0)
(0 -0 0)
(0 -0 0)
(0 -0 0)
(0 -0 0)
(0 -0 0)
(0 -0 0)
(0 -0 0)
(0 -0 0)
(0 -0 0)
(0 -0 0)
(0 -0 0)
(0 -0 0)
(0 -0 0)
(0 -0 0)
(0 -0 0)
(0 -0 0)
(0 -0 0)
(0 -0 0)
(0 -0 0)
(0 -0 0)
(0 -0 0)
(0 -0 0)
(0 -0 0)
(0 -0 0)
(0 -0 0)
(0 -0 0)
(0 -0 0)
(0 -0 0)
(0 -0 0)
(0 -0 0)
(0 -0 0)
(0 -0 0)
(0 -0 0)
(0 -0 0)
(0 -0 0)
(0 -0 0)
(0 -0 0)
(0 -0 0)
(0 -0 0)
(0 -0 0)
(0 -0 0)
(0 -0 0)
(0 -0 0)
(0 -0 0)
(0 -0 0)
(0 -0 0)
(0 -0 0)
(0 -0 0)
(0 -0 0)
(0 -0 0)
(0 -0 0)
(0 -0 0)
(0 -0 0)
(0 -0 0)
(0 -0 0)
(0 -0 1.1302348e-15)
(2.4220277e-25 1.2110138e-24 -1.6253953e-15)
(2.4220277e-25 1.2110138e-24 7.3545885e-16)
(0 -0 -4.9516041e-16)
(9.6881097e-25 4.8440549e-24 7.3545877e-16)
(7.2660823e-25 3.6330412e-24 6.4963791e-16)
(-1.1625732e-23 -5.8128658e-23 -4.2130295e-17)
(0 -0 1.1583222e-15)
(-9.3006044e-23 -4.6503022e-22 -7.8872135e-15)
(9.3006301e-23 4.650315e-22 9.7316097e-16)
(6.2004082e-23 3.1002041e-22 -7.4929631e-15)
(-1.2787812e-22 -6.3939058e-22 -1.2436783e-14)
(3.9672678e-21 1.9836339e-20 4.608744e-15)
(3.9643479e-21 1.9821739e-20 -5.2600454e-15)
(4.7474832e-20 2.3737416e-19 6.517701e-15)
(-3.1503351e-20 -1.5751676e-19 1.3097518e-14)
(1.2497574e-19 6.2487869e-19 8.4514842e-16)
(-4.9862119e-19 -2.493106e-18 1.4675045e-14)
(1.0482261e-18 5.2411305e-18 -2.2864432e-15)
(-1.0569473e-18 -5.2847367e-18 0)
(0 -0 -1.0842956)
(0 -0 7.9998273e-15)
(-6.2771388e-19 -3.1385694e-18 6.6725985e-15)
(0 -0 -9.55737e-16)
(1.5892109e-20 7.9460546e-20 -8.442683e-17)
(0 -0 -7.6399572e-15)
(0 -0 1.4800029e-15)
(5.9439294e-22 2.9719647e-21 -4.8480923e-15)
(-6.2581189e-23 -3.1290594e-22 5.3373607e-15)
(-6.2583812e-23 -3.1291906e-22 3.8949088e-15)
(3.129196e-23 1.564598e-22 2.1267425e-15)
(-3.1291869e-23 -1.5645935e-22 5.6919465e-15)
(0 -0 7.7750966e-15)
(-4.889345e-25 -2.4446725e-24 6.8049128e-15)
(0 -0 -6.5623675e-15)
(0 -0 -7.4233506e-16)
(2.4446726e-25 1.2223363e-24 0)
(0 -0 -1.1408021e-15)
(0 -0 0)
(0 -0 1.6405921e-15)
(0 -0 0)
(0 -0 0)
(0 -0 0)
(0 -0 0)
(0 -0 0)
(0 -0 0)
(0 -0 0)
(0 -0 0)
(0 -0 0)
(0 -0 0)
(0 -0 0)
(0 -0 0)
(0 -0 0)
(0 -0 0)
(0 -0 0)
(0 -0 0)
(0 -0 0)
(0 -0 0)
(0 -0 0)
(0 -0 0)
(0 -0 0)
(0 -0 0)
(0 -0 0)
(0 -0 0)
(0 -0 0)
(0 -0 0)
(0 -0 0)
(0 -0 0)
(0 -0 0)
(0 -0 0)
(0 -0 0)
(0 -0 0)
(0 -0 0)
(0 -0 0)
(0 -0 0)
(0 -0 0)
(0 -0 0)
(0 -0 0)
(0 -0 0)
(0 -0 0)
(0 -0 0)
(0 -0 0)
(0 -0 0)
(0 -0 0)
(0 -0 0)
(0 -0 0)
(0 -0 0)
(0 -0 0)
(0 -0 0)
(0 -0 0)
(0 -0 0)
(0 -0 0)
(0 -0 0)
(0 -0 0)
(0 -0 0)
(0 -0 0)
(0 -0 0)
(0 -0 0)
(0 -0 0)
(0 -0 0)
(0 -0 0)
(0 -0 0)
(0 -0 0)
(0 -0 0)
(0 -0 0)
(0 -0 0)
(0 -0 0)
(0 -0 0)
(0 -0 0)
(0 -0 0)
(0 -0 0)
(0 -0 0)
(0 -0 0)
(0 -0 0)
(0 -0 0)
(0 -0 0)
(0 -0 0)
(0 -0 0)
(0 -0 0)
(0 -0 0)
(0 -0 0)
(0 -0 0)
(0 -0 0)
(0 -0 0)
(0 -0 0)
(0 -0 0)
(0 -0 0)
(0 -0 0)
(0 -0 0)
(0 -0 0)
(0 -0 0)
(0 -0 0)
(0 -0 0)
(0 -0 0)
(0 -0 0)
(0 -0 0)
(0 -0 0)
(0 -0 0)
(0 -0 0)
(0 -0 0)
(0 -0 0)
(0 -0 0)
(0 -0 0)
(0 -0 0)
(0 -0 0)
(0 -0 0)
(0 -0 0)
(0 -0 0)
(0 -0 0)
(0 -0 0)
(0 -0 0)
(0 -0 0)
(0 -0 0)
(0 -0 0)
(0 -0 0)
(0 -0 0)
(0 -0 0)
(0 -0 0)
(0 -0 0)
(0 -0 0)
(0 -0 0)
(0 -0 0)
(0 -0 0)
(0 -0 0)
(0 -0 0)
(0 -0 0)
(0 -0 0)
(0 -0 0)
(0 -0 0)
(0 -0 0)
(0 -0 0)
(0 -0 0)
(0 -0 0)
(0 -0 0)
(0 -0 0)
(0 -0 0)
(0 -0 0)
(0 -0 0)
(0 -0 0)
(0 -0 0)
(0 -0 0)
(0 -0 0)
(0 -0 0)
(0 -0 0)
(0 -0 0)
(0 -0 0)
(0 -0 0)
(0 -0 0)
(0 -0 0)
(0 -0 0)
(0 -0 0)
(0 -0 0)
(0 -0 0)
(0 -0 0)
(0 -0 0)
(0 -0 0)
(0 -0 0)
(0 -0 0)
(0 -0 0)
(0 -0 0)
(0 -0 -1.6405921e-15)
(0 -0 0)
(0 -0 1.1408021e-15)
(0 -0 0)
(0 -0 7.4233503e-16)
(-4.8893449e-25 -2.4446725e-24 0)
(4.4004104e-24 2.2002052e-23 -2.425451e-16)
(0 -0 5.3496443e-15)
(3.129187e-23 1.5645935e-22 8.7043415e-16)
(-3.1291959e-23 -1.564598e-22 -8.6891419e-15)
(0 -0 -3.894909e-15)
(0 -0 7.7868661e-15)
(0 -0 -1.7126042e-15)
(0 -0 -1.4800029e-15)
(-1.5970488e-20 -7.9852438e-20 -1.1984578e-14)
(-1.5892107e-20 -7.9460535e-20 -5.6886791e-15)
(6.3006959e-20 3.150348e-19 -7.109154e-15)
(5.0217089e-19 2.5108544e-18 -1.1493436e-14)
(-1.0539082e-18 -5.2695409e-18 -2.0155994e-15)
(1.0623317e-18 5.3116584e-18 1.6997307e-15)
(0 -0 -1.0849263)
(-6.6060534e-20 -3.3030267e-19 -3.468178e-16)
(1.8906977e-19 9.4534884e-19 -6.7174913e-15)
(-1.5824996e-20 -7.9124981e-20 -6.1874746e-15)
(-1.9963128e-20 -9.9815638e-20 1.2342004e-14)
(4.0127871e-21 2.0063935e-20 2.0254856e-15)
(-3.1419006e-23 -1.5709503e-22 1.7922186e-17)
(7.8608995e-23 3.9304498e-22 -3.4026061e-16)
(-7.8626164e-23 -3.9313082e-22 -5.6062945e-15)
(6.2903578e-23 3.1451789e-22 -7.485048e-15)
(3.1451842e-23 1.5725921e-22 9.1762567e-15)
(-3.145175e-23 -1.5725875e-22 -1.2633015e-14)
(-5.8971942e-24 -2.9485971e-23 -9.4558823e-16)
(3.4400285e-24 1.7200143e-23 1.7149333e-16)
(-4.9143263e-25 -2.4571631e-24 -2.4378435e-16)
(0 -0 -1.1466308e-15)
(0 -0 1.3191796e-14)
(2.4571634e-25 1.2285817e-24 1.6489745e-15)
(0 -0 -5.0234359e-16)
(0 -0 0)
(0 -0 0)
(0 -0 0)
(0 -0 0)
(0 -0 0)
(0 -0 0)
(0 -0 0)
(0 -0 0)
(0 -0 0)
(0 -0 0)
(0 -0 0)
(0 -0 0)
(0 -0 0)
(0 -0 0)
(0 -0 0)
(0 -0 0)
(0 -0 0)
(0 -0 0)
(0 -0 0)
(0 -0 0)
(0 -0 0)
(0 -0 0)
(0 -0 0)
(0 -0 0)
(0 -0 0)
(0 -0 0)
(0 -0 0)
(0 -0 0)
(0 -0 0)
(0 -0 0)
(0 -0 0)
(0 -0 0)
(0 -0 0)
(0 -0 0)
(0 -0 0)
(0 -0 0)
(0 -0 0)
(0 -0 0)
(0 -0 0)
(0 -0 0)
(0 -0 0)
(0 -0 0)
(0 -0 0)
(0 -0 0)
(0 -0 0)
(0 -0 0)
(0 -0 0)
(0 -0 0)
(0 -0 0)
(0 -0 0)
(0 -0 0)
(0 -0 0)
(0 -0 0)
(0 -0 0)
(0 -0 0)
(0 -0 0)
(0 -0 0)
(0 -0 0)
(0 -0 0)
(0 -0 0)
(0 -0 0)
(0 -0 0)
(0 -0 0)
(0 -0 0)
(0 -0 0)
(0 -0 0)
(0 -0 0)
(0 -0 0)
(0 -0 0)
(0 -0 0)
(0 -0 0)
(0 -0 0)
(0 -0 0)
(0 -0 0)
(0 -0 0)
(0 -0 0)
(0 -0 0)
(0 -0 0)
(0 -0 0)
(0 -0 0)
(0 -0 0)
(0 -0 0)
(0 -0 0)
(0 -0 0)
(0 -0 0)
(0 -0 0)
(0 -0 0)
(0 -0 0)
(0 -0 0)
(0 -0 0)
(0 -0 0)
(0 -0 0)
(0 -0 0)
(0 -0 0)
(0 -0 0)
(0 -0 0)
(0 -0 0)
(0 -0 0)
(0 -0 0)
(0 -0 0)
(0 -0 0)
(0 -0 0)
(0 -0 0)
(0 -0 0)
(0 -0 0)
(0 -0 0)
(0 -0 0)
(0 -0 0)
(0 -0 0)
(0 -0 0)
(0 -0 0)
(0 -0 0)
(0 -0 0)
(0 -0 0)
(0 -0 0)
(0 -0 0)
(0 -0 0)
(0 -0 0)
(0 -0 0)
(0 -0 0)
(0 -0 0)
(0 -0 0)
(0 -0 0)
(0 -0 0)
(0 -0 0)
(0 -0 0)
(0 -0 0)
(0 -0 0)
(0 -0 0)
(0 -0 0)
(0 -0 0)
(0 -0 0)
(0 -0 0)
(0 -0 0)
(0 -0 0)
(0 -0 0)
(0 -0 0)
(0 -0 0)
(0 -0 0)
(0 -0 0)
(0 -0 0)
(0 -0 0)
(0 -0 0)
(0 -0 0)
(0 -0 0)
(0 -0 0)
(0 -0 0)
(0 -0 0)
(0 -0 0)
(0 -0 0)
(0 -0 0)
(0 -0 0)
(0 -0 0)
(0 -0 0)
(0 -0 0)
(0 -0 0)
(0 -0 0)
(0 -0 0)
(0 -0 0)
(0 -0 0)
(0 -0 0)
(0 -0 0)
(-2.4571635e-25 -1.2285817e-24 5.0234359e-16)
(0 -0 -1.6489745e-15)
(0 -0 0)
(0 -0 1.1466308e-15)
(4.9143264e-25 2.4571632e-24 2.4378436e-16)
(-4.9143264e-25 -2.4571632e-24 -1.7149333e-16)
(0 -0 9.4558819e-16)
(7.8629379e-24 3.9314689e-23 6.0371048e-15)
(0 -0 4.0156016e-15)
(5.504063e-23 2.7520315e-22 8.8912978e-16)
(-4.7175701e-23 -2.3587851e-22 -9.893462e-16)
(-1.5721799e-23 -7.8608993e-23 -1.284814e-14)
(1.2567602e-22 6.2838008e-22 6.5711206e-15)
(0 -0 -2.0254825e-15)
(0 -0 8.9179274e-15)
(7.9124963e-20 3.9562481e-19 1.1048911e-14)
(0 -0 -6.189669e-15)
(0 -0 -8.1089251e-15)
(-6.6539907e-20 -3.3269954e-19 -8.5171081e-15)
(-3.5060061e-21 -1.753003e-20 -1.0850563)
(8.2680872e-20 4.1340436e-19 2.9207018e-16)
(-2.367584e-20 -1.183792e-19 -6.5049371e-15)
(-1.5857419e-20 -7.9287097e-20 5.1176848e-15)
(-5.0015655e-22 -2.5007828e-21 -6.2394092e-15)
(3.8488288e-22 1.9244144e-21 -5.7435379e-15)
(1.2595493e-22 6.2977463e-22 5.4720614e-15)
(-7.8783717e-24 -3.9391859e-23 6.5951108e-15)
(6.3040753e-23 3.1520377e-22 7.7012662e-15)
(0 -0 -3.6014444e-16)
(-6.3043489e-23 -3.1521745e-22 -1.3660121e-15)
(1.5760826e-23 7.8804132e-23 7.5439821e-15)
(7.8804012e-24 3.9402006e-23 -4.8288817e-15)
(-9.8504976e-25 -4.9252488e-24 6.1367123e-15)
(4.9252487e-25 2.4626243e-24 -1.3935054e-15)
(0 -0 1.1491793e-15)
(0 -0 0)
(0 -0 0)
(0 -0 -9.0485314e-16)
(0 -0 0)
(0 -0 0)
(0 -0 0)
(0 -0 0)
(0 -0 0)
(0 -0 0)
(0 -0 0)
(0 -0 0)
(0 -0 0)
(0 -0 0)
(0 -0 0)
(0 -0 0)
(0 -0 0)
(0 -0 0)
(0 -0 0)
(0 -0 0)
(0 -0 0)
(0 -0 0)
(0 -0 0)
(0 -0 0)
(0 -0 0)
(0 -0 0)
(0 -0 0)
(0 -0 0)
(0 -0 0)
(0 -0 0)
(0 -0 0)
(0 -0 0)
(0 -0 0)
(0 -0 0)
(0 -0 0)
(0 -0 0)
(0 -0 0)
(0 -0 0)
(0 -0 0)
(0 -0 0)
(0 -0 0)
(0 -0 0)
(0 -0 0)
(0 -0 0)
(0 -0 0)
(0 -0 0)
(0 -0 0)
(0 -0 0)
(0 -0 0)
(0 -0 0)
(0 -0 0)
(0 -0 0)
(0 -0 0)
(0 -0 0)
(0 -0 0)
(0 -0 0)
(0 -0 0)
(0 -0 0)
(0 -0 0)
(0 -0 0)
(0 -0 0)
(0 -0 0)
(0 -0 0)
(0 -0 0)
(0 -0 0)
(0 -0 0)
(0 -0 0)
(0 -0 0)
(0 -0 0)
(0 -0 0)
(0 -0 0)
(0 -0 0)
(0 -0 0)
(0 -0 0)
(0 -0 0)
(0 -0 0)
(0 -0 0)
(0 -0 0)
(0 -0 0)
(0 -0 0)
(0 -0 0)
(0 -0 0)
(0 -0 0)
(0 -0 0)
(0 -0 0)
(0 -0 0)
(0 -0 0)
(0 -0 0)
(0 -0 0)
(0 -0 0)
(0 -0 0)
(0 -0 0)
(0 -0 0)
(0 -0 0)
(0 -0 0)
(0 -0 0)
(0 -0 0)
(0 -0 0)
(0 -0 0)
(0 -0 0)
(0 -0 0)
(0 -0 0)
(0 -0 0)
(0 -0 0)
(0 -0 0)
(0 -0 0)
(0 -0 0)
(0 -0 0)
(0 -0 0)
(0 -0 0)
(0 -0 0)
(0 -0 0)
(0 -0 0)
(0 -0 0)
(0 -0 0)
(0 -0 0)
(0 -0 0)
(0 -0 0)
(0 -0 0)
(0 -0 0)
(0 -0 0)
(0 -0 0)
(0 -0 0)
(0 -0 0)
(0 -0 0)
(0 -0 0)
(0 -0 0)
(0 -0 0)
(0 -0 0)
(0 -0 0)
(0 -0 0)
(0 -0 0)
(0 -0 0)
(0 -0 0)
(0 -0 0)
(0 -0 0)
(0 -0 0)
(0 -0 0)
(0 -0 0)
(0 -0 0)
(0 -0 0)
(0 -0 0)
(0 -0 0)
(0 -0 0)
(0 -0 0)
(0 -0 0)
(0 -0 0)
(0 -0 0)
(0 -0 0)
(0 -0 0)
(0 -0 0)
(0 -0 0)
(0 -0 0)
(0 -0 0)
(0 -0 0)
(0 -0 0)
(0 -0 0)
(0 -0 0)
(0 -0 0)
(0 -0 0)
(0 -0 0)
(0 -0 0)
(0 -0 0)
(0 -0 0)
(0 -0 0)
(0 -0 0)
(2.4626247e-25 1.2313123e-24 9.0485314e-16)
(0 -0 0)
(-2.4626247e-25 -1.2313123e-24 5.0346008e-16)
(0 -0 -1.6526393e-15)
(-9.8504977e-25 -4.9252488e-24 1.3935054e-15)
(0 -0 7.0844015e-15)
(1.5760802e-23 7.8804012e-23 -1.781678e-15)
(-2.364124e-23 -1.182062e-22 -9.334124e-16)
(3.1521745e-23 1.5760873e-22 1.3660122e-15)
(-2.3641272e-23 -1.1820636e-22 3.6014443e-16)
(0 -0 -1.0909642e-15)
(6.302697e-23 3.1513485e-22 6.6226032e-15)
(-1.8893239e-22 -9.4466196e-22 1.1316035e-15)
(4.9484941e-22 2.4742471e-21 5.7435379e-15)
(-5.0015649e-22 -2.5007824e-21 -6.8718938e-15)
(-1.1893062e-20 -5.9465309e-20 -5.1176836e-15)
(-7.8919434e-21 -3.9459717e-20 1.2970014e-14)
(6.6144655e-20 3.3072328e-19 6.4811427e-15)
(0 -0 1.3638179e-14)
(3.5059904e-21 1.7529952e-20 -1.0850515)
(-1.3441999e-20 -6.7209997e-20 -6.2793137e-15)
(-1.08585e-20 -5.42925e-20 7.1069067e-15)
(-4.9590884e-22 -2.4795442e-21 -6.0387377e-15)
(5.0054158e-22 2.5027079e-21 3.5690179e-17)
(-7.8609003e-24 -3.9304502e-23 2.2842322e-16)
(3.1513488e-23 1.5756744e-22 7.6726189e-15)
(3.9422836e-23 1.9711418e-22 -9.6792713e-15)
(-9.4635451e-23 -4.7317725e-22 1.4363568e-15)
(9.4639386e-23 4.7319693e-22 5.4640984e-15)
(-1.5773254e-23 -7.8866269e-23 -5.0766866e-15)
(0 -0 -8.5004613e-15)
(0 -0 1.3605163e-14)
(-1.9716472e-24 -9.858236e-24 -5.9398852e-15)
(2.2181031e-24 1.1090515e-23 7.1196057e-15)
(0 -0 -1.6539376e-15)
(2.4645593e-25 1.2322796e-24 1.1500821e-15)
(2.4645593e-25 1.2322796e-24 -2.1577933e-15)
(0 -0 1.6539378e-15)
(0 -0 0)
(0 -0 0)
(0 -0 0)
(0 -0 0)
(0 -0 0)
(0 -0 0)
(0 -0 0)
(0 -0 0)
(0 -0 0)
(0 -0 0)
(0 -0 0)
(0 -0 0)
(0 -0 0)
(0 -0 0)
(0 -0 0)
(0 -0 0)
(0 -0 0)
(0 -0 0)
(0 -0 0)
(0 -0 0)
(0 -0 0)
(0 -0 0)
(0 -0 0)
(0 -0 0)
(0 -0 0)
(0 -0 0)
(0 -0 0)
(0 -0 0)
(0 -0 0)
(0 -0 0)
(0 -0 0)
(0 -0 0)
(0 -0 0)
(0 -0 0)
(0 -0 0)
(0 -0 0)
(0 -0 0)
(0 -0 0)
(0 -0 0)
(0 -0 0)
(0 -0 0)
(0 -0 0)
(0 -0 0)
(0 -0 0)
(0 -0 0)
(0 -0 0)
(0 -0 0)
(0 -0 0)
(0 -0 0)
(0 -0 0)
(0 -0 0)
(0 -0 0)
(0 -0 0)
(0 -0 0)
(0 -0 0)
(0 -0 0)
(0 -0 0)
(0 -0 0)
(0 -0 0)
(0 -0 0)
(0 -0 0)
(0 -0 0)
(0 -0 0)
(0 -0 0)
(0 -0 0)
(0 -0 0)
(0 -0 0)
(0 -0 0)
(0 -0 0)
(0 -0 0)
(0 -0 0)
(0 -0 0)
(0 -0 0)
(0 -0 0)
(0 -0 0)
(0 -0 0)
(0 -0 0)
(0 -0 0)
(0 -0 0)
(0 -0 0)
(0 -0 0)
(0 -0 0)
(0 -0 0)
(0 -0 0)
(0 -0 0)
(0 -0 0)
(0 -0 0)
(0 -0 0)
(0 -0 0)
(0 -0 0)
(0 -0 0)
(0 -0 0)
(0 -0 0)
(0 -0 0)
(0 -0 0)
(0 -0 0)
(0 -0 0)
(0 -0 0)
(0 -0 0)
(0 -0 0)
(0 -0 0)
(0 -0 0)
(0 -0 0)
(0 -0 0)
(0 -0 0)
(0 -0 0)
(0 -0 0)
(0 -0 0)
(0 -0 0)
(0 -0 0)
(0 -0 0)
(0 -0 0)
(0 -0 0)
(0 -0 0)
(0 -0 0)
(0 -0 0)
(0 -0 0)
(0 -0 0)
(0 -0 0)
(0 -0 0)
(0 -0 0)
(0 -0 0)
(0 -0 0)
(0 -0 0)
(0 -0 0)
(0 -0 0)
(0 -0 0)
(0 -0 0)
(0 -0 0)
(0 -0 0)
(0 -0 0)
(0 -0 0)
(0 -0 0)
(0 -0 0)
(0 -0 0)
(0 -0 0)
(0 -0 0)
(0 -0 0)
(0 -0 0)
(0 -0 0)
(0 -0 0)
(0 -0 0)
(0 -0 0)
(0 -0 0)
(0 -0 0)
(0 -0 0)
(0 -0 0)
(0 -0 0)
(0 -0 0)
(0 -0 0)
(0 -0 0)
(0 -0 0)
(0 -0 0)
(0 -0 0)
(0 -0 0)
(0 -0 0)
(0 -0 0)
(0 -0 0)
(0 -0 0)
(0 -0 0)
(0 -0 0)
(0 -0 0)
(-2.4645593e-25 -1.2322797e-24 5.038556e-16)
(0 -0 0)
(0 -0 5.038556e-16)
(0 -0 0)
(4.9291181e-25 2.4645591e-24 -5.0385555e-16)
(0 -0 -6.75865e-16)
(0 -0 -3.7365772e-16)
(1.5773207e-23 7.8866037e-23 1.8846984e-15)
(-1.5773255e-23 -7.8866273e-23 -8.1548781e-15)
(0 -0 -5.4640987e-15)
(0 -0 -1.4363567e-15)
(-6.3076536e-23 -3.1538268e-22 -3.5488369e-15)
(0 -0 -1.0637616e-15)
(2.35827e-23 1.179135e-22 6.3657778e-15)
(1.407773e-22 7.0388652e-22 -6.5963881e-15)
(-4.4631785e-21 -2.2315892e-20 -6.9612133e-15)
(-5.9228158e-21 -2.9614079e-20 -6.3760963e-16)
(1.447599e-20 7.2379951e-20 -4.9710809e-16)
(0 -0 -1.3641385e-14)
(0 -0 -1.0850278)
(0 -0 -7.4491823e-15)
(0 -0 7.1895405e-15)
(0 -0 9.069617e-15)
(-3.1290599e-23 -1.5645299e-22 3.8343742e-15)
(3.1450467e-23 1.5725234e-22 9.0070049e-16)
(-6.3040754e-23 -3.1520377e-22 3.5748481e-16)
(-3.154515e-23 -1.5772575e-22 1.5612562e-16)
(6.3104044e-23 3.1552022e-22 -1.2524544e-15)
(0 -0 -6.6754442e-15)
(-3.1553373e-23 -1.5776686e-22 1.3080924e-15)
(7.8883201e-24 3.9441601e-23 5.7543195e-16)
(-7.8883084e-24 -3.9441542e-23 -3.0227335e-16)
(9.8603817e-25 4.9301908e-24 7.4356042e-15)
(0 -0 5.039652e-16)
(0 -0 -5.0396523e-16)
(-2.4650957e-25 -1.2325479e-24 0)
(0 -0 3.4674081e-16)
(0 -0 0)
(0 -0 0)
(0 -0 0)
(0 -0 0)
(0 -0 0)
(0 -0 0)
(0 -0 0)
(0 -0 0)
(0 -0 0)
(0 -0 0)
(0 -0 0)
(0 -0 0)
(0 -0 0)
(0 -0 0)
(0 -0 0)
(0 -0 0)
(0 -0 0)
(0 -0 0)
(0 -0 0)
(0 -0 0)
(0 -0 0)
(0 -0 0)
(0 -0 0)
(0 -0 0)
(0 -0 0)
(0 -0 0)
(0 -0 0)
(0 -0 0)
(0 -0 0)
(0 -0 0)
(0 -0 0)
(0 -0 0)
(0 -0 0)
(0 -0 0)
(0 -0 0)
(0 -0 0)
(0 -0 0)
(0 -0 0)
(0 -0 0)
(0 -0 0)
(0 -0 0)
(0 -0 0)
(0 -0 0)
(0 -0 0)
(0 -0 0)
(0 -0 0)
(0 -0 0)
(0 -0 0)
(0 -0 0)
(0 -0 0)
(0 -0 0)
(0 -0 0)
(0 -0 0)
(0 -0 0)
(0 -0 0)
(0 -0 0)
(0 -0 0)
(0 -0 0)
(0 -0 0)
(0 -0 0)
(0 -0 0)
(0 -0 0)
(0 -0 0)
(0 -0 0)
(0 -0 0)
(0 -0 0)
(0 -0 0)
(0 -0 0)
(0 -0 0)
(0 -0 0)
(0 -0 0)
(0 -0 0)
(0 -0 0)
(0 -0 0)
(0 -0 0)
(0 -0 0)
(0 -0 0)
(0 -0 0)
(0 -0 0)
(0 -0 0)
(0 -0 0)
(0 -0 0)
(0 -0 0)
(0 -0 0)
(0 -0 0)
(0 -0 0)
(0 -0 0)
(0 -0 0)
(0 -0 0)
(0 -0 0)
(0 -0 0)
(0 -0 0)
(0 -0 0)
(0 -0 0)
(0 -0 0)
(0 -0 0)
(0 -0 0)
(0 -0 0)
(0 -0 0)
(0 -0 0)
(0 -0 0)
(0 -0 0)
(0 -0 0)
(0 -0 0)
(0 -0 0)
(0 -0 0)
(0 -0 0)
(0 -0 0)
(0 -0 0)
(0 -0 0)
(0 -0 0)
(0 -0 0)
(0 -0 0)
(0 -0 0)
(0 -0 0)
(0 -0 0)
(0 -0 0)
(0 -0 0)
(0 -0 0)
(0 -0 0)
(0 -0 0)
(0 -0 0)
(0 -0 0)
(0 -0 0)
(0 -0 0)
(0 -0 0)
(0 -0 0)
(0 -0 0)
(0 -0 0)
(0 -0 0)
(0 -0 0)
(0 -0 0)
(0 -0 0)
(0 -0 0)
(0 -0 0)
(0 -0 0)
(0 -0 0)
(0 -0 0)
(0 -0 0)
(0 -0 0)
(0 -0 0)
(0 -0 0)
(0 -0 0)
(0 -0 0)
(0 -0 0)
(0 -0 0)
(0 -0 0)
(0 -0 0)
(0 -0 0)
(0 -0 0)
(0 -0 0)
(0 -0 0)
(0 -0 0)
(0 -0 0)
(0 -0 0)
(0 -0 0)
(0 -0 0)
(0 -0 0)
(0 -0 0)
(0 -0 0)
(0 -0 0)
(0 -0 0)
(0 -0 0)
(2.4650958e-25 1.2325479e-24 -1.6542978e-15)
(0 -0 1.307557e-15)
(2.4650958e-25 1.2325479e-24 0)
(0 -0 5.0396522e-16)
(0 -0 -5.0396522e-16)
(0 -0 -8.1841403e-16)
(0 -0 -6.3149194e-15)
(1.577664e-23 7.88832e-23 -5.7543184e-16)
(-1.5776687e-23 -7.8883434e-23 5.3091296e-15)
(0 -0 6.6754444e-15)
(6.3104041e-23 3.1552021e-22 1.2524543e-15)
(-9.4635455e-23 -4.7317728e-22 -6.7716234e-15)
(0 -0 6.252817e-15)
(0 -0 -2.0687623e-14)
(-3.1290595e-22 -1.5645297e-21 -4.975131e-15)
(4.0300985e-22 2.0150492e-21 -7.4442824e-15)
(6.1707797e-23 3.0853899e-22 -7.682333e-15)
(0 -0 -6.1056236e-15)
(0 -0 0)
(0 -0 -1.0850122)
(1.0341852e-21 5.1709258e-21 -1.2459992e-15)
(-9.8736533e-22 -4.9368266e-21 -5.6099221e-15)
(0 -0 -1.1634742e-14)
(0 -0 1.1224834e-14)
(0 -0 2.105945e-15)
(-6.3043392e-23 -3.1521696e-22 -9.4996663e-15)
(3.1546462e-23 1.5773231e-22 8.6269671e-15)
(-3.1553328e-23 -1.5776664e-22 -1.2960738e-14)
(0 -0 -5.6412747e-15)
(1.5777339e-23 7.8886694e-23 -7.1998357e-16)
(-7.8886464e-24 -3.9443232e-23 -5.7545573e-15)
(3.9443174e-24 1.9721587e-23 -1.6247204e-15)
(-9.8607898e-25 -4.9303949e-24 1.654366e-15)
(-2.4651975e-25 -1.2325987e-24 -1.654366e-15)
(0 -0 1.6543661e-15)
(0 -0 0)
(-2.4651978e-25 -1.2325989e-24 -1.6543662e-15)
(0 -0 0)
(0 -0 0)
(0 -0 0)
(0 -0 0)
(0 -0 0)
(0 -0 0)
(0 -0 0)
(0 -0 0)
(0 -0 0)
(0 -0 0)
(0 -0 0)
(0 -0 0)
(0 -0 0)
(0 -0 0)
(0 -0 0)
(0 -0 0)
(0 -0 0)
(0 -0 0)
(0 -0 0)
(0 -0 0)
(0 -0 0)
(0 -0 0)
(0 -0 0)
(0 -0 0)
(0 -0 0)
(0 -0 0)
(0 -0 0)
(0 -0 0)
(0 -0 0)
(0 -0 0)
(0 -0 0)
(0 -0 0)
(0 -0 0)
(0 -0 0)
(0 -0 0)
(0 -0 0)
(0 -0 0)
(0 -0 0)
(0 -0 0)
(0 -0 0)
(0 -0 0)
(0 -0 0)
(0 -0 0)
(0 -0 0)
(0 -0 0)
(0 -0 0)
(0 -0 0)
(0 -0 0)
(0 -0 0)
(0 -0 0)
(0 -0 0)
(0 -0 0)
(0 -0 0)
(0 -0 0)
(0 -0 0)
(0 -0 0)
(0 -0 0)
(0 -0 0)
(0 -0 0)
(0 -0 0)
(0 -0 0)
(0 -0 0)
(0 -0 0)
(0 -0 0)
(0 -0 0)
(0 -0 0)
(0 -0 0)
(0 -0 0)
(0 -0 0)
(0 -0 0)
(0 -0 0)
(0 -0 0)
(0 -0 0)
(0 -0 0)
(0 -0 0)
(0 -0 0)
(0 -0 0)
(0 -0 0)
(0 -0 0)
(0 -0 0)
(0 -0 0)
(0 -0 0)
(0 -0 0)
(0 -0 0)
(0 -0 0)
(0 -0 0)
(0 -0 0)
(0 -0 0)
(0 -0 0)
(0 -0 0)
(0 -0 0)
(0 -0 0)
(0 -0 0)
(0 -0 0)
(0 -0 0)
(0 -0 0)
(0 -0 0)
(0 -0 0)
(0 -0 0)
(0 -0 0)
(0 -0 0)
(0 -0 0)
(0 -0 0)
(0 -0 0)
(0 -0 0)
(0 -0 0)
(0 -0 0)
(0 -0 0)
(0 -0 0)
(0 -0 0)
(0 -0 0)
(0 -0 0)
(0 -0 0)
(0 -0 0)
(0 -0 0)
(0 -0 0)
(0 -0 0)
(0 -0 0)
(0 -0 0)
(0 -0 0)
(0 -0 0)
(0 -0 0)
(0 -0 0)
(0 -0 0)
(0 -0 0)
(0 -0 0)
(0 -0 0)
(0 -0 0)
(0 -0 0)
(0 -0 0)
(0 -0 0)
(0 -0 0)
(0 -0 0)
(0 -0 0)
(0 -0 0)
(0 -0 0)
(0 -0 0)
(0 -0 0)
(0 -0 0)
(0 -0 0)
(0 -0 0)
(0 -0 0)
(0 -0 0)
(0 -0 0)
(0 -0 0)
(0 -0 0)
(0 -0 0)
(0 -0 0)
(0 -0 0)
(0 -0 0)
(0 -0 0)
(0 -0 0)
(0 -0 0)
(0 -0 0)
(0 -0 0)
(0 -0 0)
(0 -0 0)
(0 -0 0)
(0 -0 0)
(0 -0 0)
(0 -0 0)
(0 -0 0)
(0 -0 0)
(0 -0 0)
(0 -0 1.6543662e-15)
(0 -0 0)
(0 -0 -1.6543661e-15)
(0 -0 1.6543661e-15)
(0 -0 -1.6543659e-15)
(0 -0 1.6247203e-15)
(-3.9443233e-24 -1.9721616e-23 -8.6291891e-16)
(0 -0 7.3374789e-15)
(0 -0 1.2258761e-14)
(3.1553328e-23 1.5776664e-22 -2.7368765e-16)
(6.3092926e-23 3.1546463e-22 -2.0111947e-15)
(-3.1521694e-23 -1.5760847e-22 -3.721491e-15)
(-1.5725895e-23 -7.8629475e-23 4.4899734e-15)
(1.4081356e-22 7.0406781e-22 6.821733e-15)
(2.480163e-22 1.2400815e-21 1.488554e-14)
(-1.8513092e-22 -9.2565462e-22 -8.60875e-16)
(0 -0 1.2459983e-15)
(0 -0 6.8210065e-15)
(2.7389378e-23 1.3694689e-22 -1.085005)
(-5.1709481e-22 -2.585474e-21 9.4995811e-16)
(6.1710533e-22 3.0855267e-21 -1.2786336e-16)
(-6.2004204e-23 -3.1002102e-22 4.3383954e-15)
(7.8229901e-24 3.911495e-23 -1.1212779e-14)
(-3.9314802e-23 -1.9657401e-22 7.6697464e-15)
(3.1521745e-23 1.5760872e-22 -1.4384643e-15)
(1.5773254e-23 7.8866269e-23 -6.1870805e-16)
(3.1553373e-23 1.5776686e-22 8.4144593e-15)
(-1.5777339e-23 -7.8886694e-23 1.3336106e-14)
(0 -0 -1.6125536e-15)