/*--------------------------------*- C++ -*----------------------------------*\
| =========                 |                                                 |
| \\      /  F ield         | OpenFOAM: The Open Source CFD Toolbox           |
|  \\    /   O peration     | Version:  2106                                  |
|   \\  /    A nd           | Website:  www.openfoam.com                      |
|    \\/     M anipulation  |                                                 |
\*---------------------------------------------------------------------------*/
FoamFile
{
    version     2.0;
    format      ascii;
    arch        "LSB;label=32;scalar=64";
    class       volVectorField;
    location    "0";
    object      U;
}
// * * * * * * * * * * * * * * * * * * * * * * * * * * * * * * * * * * * * * //

dimensions      [0 1 -1 0 0 0 0];

internalField   uniform (0.05 -0.01 0);

boundaryField
{
    wall
    {
        type            movingWallVelocity;
        value           nonuniform List<vector> 0();
    }
    inlet
    {
        type            fixedNormalInletOutletVelocity;
        fixTangentialInflow yes;
        normalVelocity
        {
            type            fixedValue;
            value           nonuniform List<vector> 0();
        }
        value           nonuniform List<vector> 0();
    }
    outlet
    {
        type            pressureInletOutletVelocity;
        value           nonuniform List<vector> 0();
    }
    open
    {
        type            pressureInletOutletVelocity;
        value           uniform (0.05 -0.01 0);
    }
    open001
    {
        type            pressureInletOutletVelocity;
        value           uniform (0.05 -0.01 0);
    }
    emptyWalls
    {
        type            empty;
    }
    procBoundary2to0
    {
        type            processor;
        value           uniform (0.05 -0.01 0);
    }
    procBoundary2to3
    {
        type            processor;
        value           uniform (0.05 -0.01 0);
    }
}


// ************************************************************************* //
