/*--------------------------------*- C++ -*----------------------------------*\
| =========                 |                                                 |
| \\      /  F ield         | OpenFOAM: The Open Source CFD Toolbox           |
|  \\    /   O peration     | Version:  2106                                  |
|   \\  /    A nd           | Website:  www.openfoam.com                      |
|    \\/     M anipulation  |                                                 |
\*---------------------------------------------------------------------------*/
FoamFile
{
    version     2.0;
    format      ascii;
    arch        "LSB;label=32;scalar=64";
    class       volVectorField;
    location    "0";
    object      vorticity;
}
// * * * * * * * * * * * * * * * * * * * * * * * * * * * * * * * * * * * * * //

dimensions      [0 0 -1 0 0 0 0];

internalField   nonuniform List<vector> 
120950
(
(2.4636216e-18 1.2318108e-17 1.1702203e-15)
(-2.5477585e-18 -1.2738793e-17 -6.1146205e-15)
(-7.2801818e-20 -3.6400909e-19 -1.2170412)
(6.467109e-20 3.2335545e-19 -1.2106437)
(0 -0 -1.2395701)
(-2.2891889e-19 -1.1445944e-18 -1.2047969)
(0 -0 -1.2110929)
(5.5849368e-20 2.7924684e-19 -1.1859681)
(0 -0 -1.1934101)
(0 -0 -1.1869673)
(6.103596e-20 3.051798e-19 -1.1915042)
(-3.4281643e-20 -1.7140822e-19 -1.1905211)
(-3.2703841e-20 -1.6351921e-19 -1.1917233)
(0 -0 -1.1914853)
(0 -0 -1.1916102)
(0 -0 -1.1915766)
(0 -0 -1.1915786)
(0 -0 -1.1915786)
(0 -0 -1.1915779)
(0 -0 -1.1915779)
(0 -0 -1.1915779)
(0 -0 -1.1915786)
(0 -0 -1.1915793)
(0 -0 -1.1915793)
(0 -0 -1.1915793)
(0 -0 -1.1915793)
(0 -0 -1.1915793)
(0 -0 -1.1915786)
(0 -0 -1.1915786)
(0 -0 -1.1915793)
(0 -0 -1.1915786)
(0 -0 -1.1915779)
(0 -0 -1.1915786)
(0 -0 -1.1915793)
(0 -0 -1.1915786)
(0 -0 -1.1915779)
(0 -0 -1.1915786)
(0 -0 -1.1915793)
(0 -0 -1.1915786)
(0 -0 -1.1915786)
(0 -0 -1.1915793)
(0 -0 -1.1915793)
(0 -0 -1.1915793)
(0 -0 -1.1915793)
(0 -0 -1.1915793)
(0 -0 -1.1915793)
(0 -0 -1.1915793)
(0 -0 -1.1915793)
(0 -0 -1.1915793)
(0 -0 -1.1915793)
(0 -0 -1.1915793)
(0 -0 -1.1915793)
(0 -0 -1.1915793)
(0 -0 -1.1915793)
(0 -0 -1.1915793)
(0 -0 -1.1915793)
(0 -0 -1.1915793)
(0 -0 -1.1915793)
(0 -0 -1.1915793)
(0 -0 -1.1915793)
(0 -0 -1.1915793)
(0 -0 -1.1915793)
(0 -0 -1.1915793)
(0 -0 -1.1915786)
(0 -0 -1.1915786)
(0 -0 -1.1915793)
(0 -0 -1.1915786)
(0 -0 -1.1915786)
(0 -0 -1.1915793)
(0 -0 -1.1915786)
(0 -0 -1.1915779)
(0 -0 -1.1915786)
(0 -0 -1.1915786)
(0 -0 -1.1915786)
(0 -0 -1.1915793)
(0 -0 -1.1915793)
(0 -0 -1.1915793)
(0 -0 -1.1915786)
(0 -0 -1.1915786)
(0 -0 -1.1915793)
(0 -0 -1.1915786)
(0 -0 -1.1915793)
(0 -0 -1.1915799)
(0 -0 -1.1915793)
(0 -0 -1.1915793)
(0 -0 -1.1915793)
(0 -0 -1.1915786)
(0 -0 -1.1915779)
(0 -0 -1.1915766)
(0 -0 -1.1916102)
(0 -0 -1.1914853)
(0 -0 -1.1917332)
(0 -0 -1.1905093)
(0 -0 -1.1914956)
(-7.3446214e-21 -3.6723107e-20 -1.1869868)
(1.5087969e-20 7.5439844e-20 -1.1934075)
(-9.4946316e-19 -4.7473158e-18 -1.1859655)
(1.0091601e-18 5.0458003e-18 -1.2110937)
(6.8672783e-19 3.4336391e-18 -1.2047906)
(-1.7064884e-18 -8.5324422e-18 -1.2395987)
(9.7006996e-19 4.8503498e-18 -1.2106457)
(1.4559566e-19 7.2797831e-19 -1.2170337)
(1.9108408e-18 9.5542039e-18 -1.6879094e-15)
(1.2780172e-18 6.3900862e-18 -8.450889e-15)
(2.2376077e-18 1.1188039e-17 3.775963e-16)
(0 -0 2.7276297e-16)
(5.4476487e-19 2.7238244e-18 -3.4047805e-17)
(0 -0 6.5190186e-15)
(0 -0 9.9463094e-15)
(0 -0 -9.4109547e-15)
(1.4515906e-19 7.257953e-19 6.4904244e-15)
(-1.2776927e-19 -6.3884636e-19 5.6766062e-16)
(-1.8272754e-20 -9.1363768e-20 -7.4845199e-15)
(1.8285543e-20 9.1427713e-20 7.4897582e-15)
(0 -0 0)
(0 -0 0)
(0 -0 0)
(0 -0 0)
(0 -0 1.4981763e-14)
(0 -0 0)
(0 -0 0)
(0 -0 0)
(0 -0 1.4981763e-14)
(0 -0 0)
(0 -0 0)
(0 -0 0)
(0 -0 1.4981763e-14)
(0 -0 0)
(0 -0 0)
(0 -0 0)
(0 -0 0)
(0 -0 0)
(0 -0 0)
(0 -0 0)
(0 -0 0)
(0 -0 0)
(0 -0 -1.4981763e-14)
(0 -0 0)
(0 -0 0)
(0 -0 0)
(0 -0 0)
(0 -0 0)
(0 -0 0)
(0 -0 -1.4981763e-14)
(0 -0 0)
(0 -0 0)
(0 -0 0)
(0 -0 0)
(0 -0 0)
(0 -0 0)
(0 -0 0)
(0 -0 -1.4981763e-14)
(0 -0 0)
(0 -0 0)
(0 -0 0)
(0 -0 0)
(0 -0 0)
(0 -0 0)
(0 -0 0)
(0 -0 0)
(0 -0 0)
(0 -0 0)
(0 -0 0)
(0 -0 0)
(0 -0 0)
(0 -0 0)
(0 -0 0)
(0 -0 0)
(0 -0 0)
(0 -0 0)
(0 -0 0)
(0 -0 0)
(0 -0 0)
(0 -0 0)
(0 -0 0)
(0 -0 0)
(0 -0 0)
(0 -0 0)
(0 -0 0)
(0 -0 0)
(0 -0 0)
(0 -0 0)
(0 -0 0)
(0 -0 0)
(0 -0 0)
(0 -0 0)
(0 -0 0)
(0 -0 0)
(0 -0 0)
(0 -0 0)
(0 -0 0)
(0 -0 0)
(0 -0 0)
(0 -0 0)
(0 -0 0)
(0 -0 0)
(0 -0 0)
(0 -0 0)
(0 -0 0)
(0 -0 0)
(0 -0 0)
(0 -0 0)
(0 -0 0)
(0 -0 0)
(0 -0 0)
(0 -0 0)
(0 -0 0)
(0 -0 0)
(0 -0 0)
(0 -0 0)
(0 -0 0)
(0 -0 0)
(0 -0 0)
(0 -0 0)
(0 -0 0)
(0 -0 0)
(0 -0 0)
(0 -0 0)
(0 -0 0)
(0 -0 0)
(0 -0 0)
(0 -0 0)
(0 -0 0)
(0 -0 0)
(0 -0 0)
(0 -0 0)
(0 -0 0)
(0 -0 0)
(0 -0 0)
(0 -0 0)
(0 -0 0)
(0 -0 0)
(0 -0 0)
(0 -0 0)
(0 -0 0)
(0 -0 0)
(0 -0 0)
(0 -0 0)
(0 -0 0)
(0 -0 0)
(0 -0 0)
(0 -0 0)
(0 -0 0)
(0 -0 0)
(0 -0 0)
(0 -0 0)
(0 -0 0)
(0 -0 0)
(0 -0 0)
(0 -0 0)
(0 -0 0)
(0 -0 0)
(0 -0 0)
(0 -0 0)
(0 -0 0)
(0 -0 0)
(0 -0 0)
(0 -0 0)
(0 -0 0)
(0 -0 0)
(0 -0 0)
(0 -0 0)
(0 -0 0)
(0 -0 0)
(0 -0 0)
(0 -0 0)
(0 -0 0)
(0 -0 0)
(0 -0 0)
(0 -0 0)
(0 -0 0)
(0 -0 0)
(0 -0 0)
(0 -0 0)
(0 -0 0)
(0 -0 0)
(0 -0 0)
(0 -0 0)
(0 -0 0)
(0 -0 0)
(0 -0 0)
(0 -0 0)
(0 -0 0)
(0 -0 0)
(0 -0 0)
(0 -0 0)
(0 -0 0)
(0 -0 0)
(0 -0 0)
(0 -0 0)
(0 -0 -5.6759829e-16)
(-5.8073704e-19 -2.9036852e-18 9.4142919e-16)
(8.6655841e-19 4.3327921e-18 -5.3812375e-15)
(-4.776304e-18 -2.388152e-17 4.5410268e-15)
(6.7974411e-18 3.3987206e-17 -6.5177548e-15)
(-1.0895576e-17 -5.4477882e-17 3.7113057e-16)
(6.8938033e-18 3.4469017e-17 6.7214582e-15)
(4.4732876e-18 2.2366438e-17 6.7658475e-15)
(1.1501061e-17 5.7505303e-17 8.4500848e-15)
(-7.6452079e-18 -3.822604e-17 7.8363381e-15)
(6.898775e-19 3.4493875e-18 8.8304319e-15)
(9.5265679e-18 4.763284e-17 -7.6212543e-16)
(-1.0255009e-17 -5.1275045e-17 -1.6023452e-15)
(4.4576493e-18 2.2288246e-17 2.6745896e-15)
(5.7671155e-18 2.8835578e-17 -6.8628675e-15)
(-1.0320882e-17 -5.1604412e-17 1.9555356e-15)
(5.6845638e-18 2.8422819e-17 -1.8190604e-15)
(-4.5215012e-18 -2.2607506e-17 0)
(0 -0 -1.8519117e-15)
(-2.90122e-19 -1.45061e-18 -1.8567808e-15)
(0 -0 9.2686463e-15)
(0 -0 -1.8719776e-15)
(0 -0 0)
(0 -0 0)
(0 -0 0)
(0 -0 0)
(0 -0 0)
(0 -0 0)
(0 -0 0)
(7.3373382e-20 3.6686691e-19 0)
(-7.3720756e-20 -3.6860378e-19 0)
(5.9447082e-19 2.9723541e-18 -8.1739738e-17)
(1.8228632e-18 9.114316e-18 -4.1318233e-15)
(-2.4926842e-18 -1.2463421e-17 -4.3621974e-16)
(0 -0 -9.2457615e-15)
(0 -0 1.1099367e-15)
(-4.2855102e-17 -2.1427551e-16 5.2038338e-15)
(-5.2869387e-17 -2.6434693e-16 1.3217347e-15)
(2.5806717e-16 1.2903359e-15 0)
(0 -0 -3.0290086e-14)
(4.8653333e-17 2.4326666e-16 1.4596e-14)
(2.4895642e-17 1.2447821e-16 2.4895642e-14)
(-3.815756e-17 -1.907878e-16 -1.0175349e-14)
(3.1082401e-17 1.5541201e-16 1.2432961e-14)
(1.4118177e-17 7.0590886e-17 -7.5296945e-15)
(-8.3442976e-18 -4.1721488e-17 0)
(-1.1782942e-18 -5.8914709e-18 3.7705414e-15)
(0 -0 -1.0434168e-14)
(-1.1753614e-18 -5.876807e-18 -6.2294154e-15)
(-7.3323461e-20 -3.666173e-19 0)
(7.3176667e-20 3.6588333e-19 0)
(0 -0 -7.4902916e-15)
(0 -0 -7.4872949e-15)
(0 -0 0)
(0 -0 0)
(0 -0 0)
(0 -0 0)
(0 -0 0)
(0 -0 0)
(0 -0 0)
(0 -0 0)
(0 -0 0)
(0 -0 0)
(0 -0 0)
(0 -0 0)
(0 -0 0)
(0 -0 0)
(0 -0 0)
(0 -0 0)
(0 -0 0)
(0 -0 0)
(0 -0 0)
(0 -0 0)
(0 -0 0)
(0 -0 0)
(0 -0 0)
(0 -0 0)
(0 -0 0)
(0 -0 0)
(0 -0 0)
(0 -0 0)
(0 -0 0)
(0 -0 0)
(0 -0 0)
(0 -0 0)
(0 -0 0)
(0 -0 0)
(0 -0 0)
(0 -0 0)
(0 -0 0)
(0 -0 0)
(0 -0 0)
(0 -0 0)
(0 -0 0)
(0 -0 0)
(0 -0 0)
(0 -0 0)
(0 -0 0)
(0 -0 0)
(0 -0 0)
(0 -0 0)
(0 -0 0)
(0 -0 0)
(0 -0 0)
(0 -0 0)
(0 -0 0)
(0 -0 0)
(0 -0 0)
(0 -0 0)
(0 -0 0)
(0 -0 0)
(0 -0 0)
(0 -0 0)
(0 -0 0)
(0 -0 0)
(0 -0 0)
(0 -0 0)
(0 -0 0)
(0 -0 0)
(0 -0 0)
(0 -0 0)
(0 -0 0)
(0 -0 0)
(0 -0 0)
(0 -0 0)
(0 -0 0)
(0 -0 0)
(0 -0 0)
(0 -0 0)
(0 -0 0)
(0 -0 0)
(0 -0 0)
(0 -0 0)
(0 -0 0)
(0 -0 0)
(0 -0 0)
(0 -0 0)
(0 -0 0)
(0 -0 0)
(0 -0 0)
(0 -0 0)
(0 -0 0)
(0 -0 0)
(0 -0 0)
(0 -0 0)
(0 -0 0)
(0 -0 0)
(0 -0 0)
(0 -0 0)
(0 -0 0)
(0 -0 0)
(0 -0 0)
(0 -0 0)
(0 -0 0)
(0 -0 0)
(0 -0 0)
(0 -0 0)
(0 -0 0)
(0 -0 0)
(0 -0 0)
(0 -0 0)
(0 -0 0)
(0 -0 0)
(0 -0 0)
(0 -0 0)
(0 -0 0)
(0 -0 0)
(0 -0 0)
(0 -0 0)
(0 -0 0)
(0 -0 0)
(0 -0 0)
(0 -0 0)
(0 -0 0)
(0 -0 0)
(0 -0 0)
(0 -0 0)
(0 -0 0)
(0 -0 0)
(0 -0 0)
(0 -0 0)
(0 -0 0)
(0 -0 0)
(0 -0 0)
(0 -0 0)
(0 -0 0)
(0 -0 0)
(0 -0 0)
(0 -0 0)
(0 -0 0)
(0 -0 0)
(0 -0 0)
(0 -0 0)
(0 -0 0)
(0 -0 0)
(0 -0 0)
(0 -0 0)
(0 -0 -7.4872949e-15)
(0 -0 0)
(0 -0 -7.4932907e-15)
(-2.9317622e-19 -1.4658811e-18 7.5053112e-15)
(2.9366383e-19 1.4683191e-18 -8.8099148e-15)
(1.1845088e-18 5.9225442e-18 3.079723e-15)
(-2.343802e-18 -1.171901e-17 -2.5781822e-15)
(-4.770929e-18 -2.3854645e-17 -9.541858e-16)
(9.3602285e-18 4.6801142e-17 7.4881828e-15)
(0 -0 -1.729418e-14)
(1.269732e-17 6.3486599e-17 5.0789279e-15)
(-3.3249326e-16 -1.6624663e-15 -2.2166217e-14)
(9.0523569e-17 4.5261785e-16 1.4144308e-14)
(0 -0 -1.0645257e-14)
(0 -0 -1.2744161e-14)
(0 -0 -2.8697679e-14)
(0 -0 1.1456869e-14)
(-2.4082501e-17 -1.204125e-16 -1.5051563e-15)
(3.287347e-17 1.6436735e-16 -1.2327551e-15)
(-9.2044388e-18 -4.6022194e-17 4.9309493e-15)
(0 -0 4.3518582e-16)
(-6.07087e-19 -3.035435e-18 -1.6998436e-15)
(-2.9714494e-19 -1.4857247e-18 8.1714857e-17)
(0 -0 1.8870613e-15)
(0 -0 0)
(1.8312135e-20 9.1560677e-20 1.8751627e-15)
(-1.8301145e-20 -9.1505727e-20 1.8740373e-15)
(0 -0 0)
(0 -0 0)
(0 -0 0)
(0 -0 0)
(-1.8293826e-20 -9.146913e-20 1.8732878e-15)
(1.8281031e-20 9.1405156e-20 -1.8719776e-15)
(-1.4601379e-19 -7.3006895e-19 -7.3955984e-15)
(-1.4509339e-19 -7.2546694e-19 1.8571954e-15)
(-2.8889379e-19 -1.444469e-18 0)
(2.8293699e-19 1.4146849e-18 -1.8107967e-15)
(0 -0 1.8128929e-15)
(8.7157642e-18 4.3578821e-17 -1.961047e-15)
(-8.0406565e-18 -4.0203283e-17 6.8345581e-15)
(0 -0 -8.9515027e-16)
(0 -0 -4.4743291e-16)
(2.5489279e-18 1.274464e-17 2.8038207e-15)
(-6.9023049e-19 -3.4511524e-18 -8.8349502e-15)
(1.3341313e-17 6.6706565e-17 -1.7089587e-14)
(-6.4106438e-18 -3.2053219e-17 5.128515e-16)
(-2.2291201e-18 -1.11456e-17 -7.3282323e-15)
(-2.3073816e-18 -1.1536908e-17 6.5760376e-15)
(0 -0 2.0340794e-15)
(0 -0 -1.6084352e-15)
(7.0660604e-20 3.5330302e-19 1.1681081e-15)
(0 -0 -1.0012644e-15)
(3.6278002e-20 1.8139001e-19 2.5213211e-16)
(-1.8259479e-20 -9.1297393e-20 8.851054e-15)
(0 -0 -4.2499805e-16)
(0 -0 -5.782969e-16)
(0 -0 -1.2422952e-15)
(0 -0 0)
(0 -0 0)
(0 -0 0)
(0 -0 0)
(0 -0 0)
(0 -0 0)
(0 -0 0)
(0 -0 0)
(0 -0 0)
(0 -0 0)
(0 -0 0)
(0 -0 0)
(0 -0 0)
(0 -0 0)
(0 -0 0)
(0 -0 0)
(0 -0 0)
(0 -0 0)
(0 -0 0)
(0 -0 0)
(0 -0 0)
(0 -0 0)
(0 -0 0)
(0 -0 0)
(0 -0 0)
(0 -0 0)
(0 -0 0)
(0 -0 0)
(0 -0 0)
(0 -0 0)
(0 -0 0)
(0 -0 0)
(0 -0 0)
(0 -0 1.5575161e-15)
(0 -0 -1.5575161e-15)
(0 -0 0)
(0 -0 0)
(0 -0 0)
(0 -0 0)
(0 -0 0)
(0 -0 0)
(0 -0 0)
(0 -0 0)
(0 -0 0)
(0 -0 0)
(0 -0 0)
(0 -0 0)
(0 -0 0)
(0 -0 0)
(0 -0 0)
(0 -0 0)
(0 -0 0)
(0 -0 0)
(0 -0 0)
(0 -0 1.5575161e-15)
(0 -0 0)
(0 -0 -1.5575161e-15)
(0 -0 0)
(0 -0 0)
(0 -0 0)
(0 -0 0)
(0 -0 0)
(0 -0 0)
(0 -0 0)
(0 -0 0)
(0 -0 0)
(0 -0 0)
(0 -0 0)
(0 -0 3.1522056e-16)
(0 -0 -3.1522056e-16)
(0 -0 0)
(0 -0 0)
(0 -0 0)
(0 -0 0)
(0 -0 1.5575161e-15)
(0 -0 -1.5575161e-15)
(0 -0 0)
(0 -0 0)
(0 -0 0)
(0 -0 1.5575161e-15)
(0 -0 -1.5575161e-15)
(0 -0 3.1522056e-16)
(0 -0 -3.1522056e-16)
(0 -0 0)
(0 -0 0)
(0 -0 0)
(0 -0 0)
(0 -0 0)
(0 -0 0)
(0 -0 0)
(0 -0 0)
(0 -0 0)
(0 -0 0)
(0 -0 1.5575161e-15)
(0 -0 0)
(0 -0 -1.5575161e-15)
(0 -0 0)
(0 -0 0)
(0 -0 0)
(0 -0 0)
(0 -0 0)
(0 -0 0)
(0 -0 0)
(0 -0 0)
(0 -0 0)
(0 -0 0)
(0 -0 0)
(0 -0 0)
(0 -0 0)
(0 -0 0)
(0 -0 0)
(0 -0 0)
(0 -0 0)
(0 -0 0)
(0 -0 0)
(0 -0 0)
(0 -0 0)
(0 -0 0)
(0 -0 0)
(0 -0 0)
(0 -0 0)
(0 -0 0)
(0 -0 0)
(0 -0 0)
(0 -0 0)
(0 -0 0)
(0 -0 0)
(0 -0 0)
(0 -0 0)
(0 -0 0)
(0 -0 0)
(0 -0 0)
(0 -0 0)
(0 -0 0)
(0 -0 0)
(0 -0 -1.4981899e-14)
(0 -0 0)
(0 -0 0)
(0 -0 0)
(0 -0 0)
(0 -0 0)
(0 -0 0)
(0 -0 0)
(0 -0 -1.4981899e-14)
(0 -0 0)
(0 -0 0)
(0 -0 0)
(0 -0 0)
(0 -0 0)
(0 -0 0)
(0 -0 -1.4981899e-14)
(0 -0 0)
(0 -0 0)
(0 -0 0)
(0 -0 0)
(0 -0 0)
(0 -0 0)
(0 -0 0)
(0 -0 0)
(0 -0 0)
(0 -0 1.4981899e-14)
(0 -0 0)
(0 -0 0)
(0 -0 0)
(0 -0 1.4981899e-14)
(0 -0 0)
(0 -0 0)
(0 -0 0)
(0 -0 1.4981899e-14)
(0 -0 0)
(0 -0 0)
(0 -0 1.5575161e-15)
(0 -0 -6.3043934e-16)
(1.8285553e-20 9.1427765e-20 -7.8720448e-15)
(-2.7408494e-20 -1.3704247e-19 7.6094545e-15)
(0 -0 1.6704153e-15)
(-5.8062244e-19 -2.9031122e-18 -8.0633941e-15)
(5.7788285e-19 2.8894142e-18 6.4113393e-15)
(0 -0 7.4963936e-15)
(2.2661799e-18 1.1330899e-17 -4.9130072e-16)
(-1.0895443e-17 -5.4477214e-17 8.3418233e-16)
(6.890995e-18 3.4454975e-17 -5.7424958e-16)
(4.4751744e-18 2.2375872e-17 5.0345712e-16)
(1.2779995e-18 6.3899977e-18 7.0130225e-15)
(1.1487695e-18 5.7438475e-18 -4.9397088e-15)
(-2.0865001e-18 -1.04325e-17 -1.3562251e-15)
(0 -0 -3.3251783e-15)
(3.8562818e-18 1.9281409e-17 -2.4101761e-15)
(-1.9512297e-18 -9.7561487e-18 6.6829619e-15)
(-4.9679683e-19 -2.4839841e-18 -8.457966e-15)
(-1.0061817e-18 -5.0309083e-18 6.2226047e-15)
(9.5807312e-19 4.7903656e-18 -7.3922072e-15)
(-3.1784181e-20 -1.589209e-19 1.8673206e-15)
(1.5918621e-20 7.9593105e-20 3.266501e-15)
(-7.963849e-21 -3.9819245e-20 5.3473264e-15)
(0 -0 0)
(0 -0 0)
(0 -0 0)
(0 -0 0)
(0 -0 0)
(0 -0 -3.2632652e-15)
(0 -0 0)
(0 -0 0)
(0 -0 0)
(0 -0 -3.2632652e-15)
(0 -0 0)
(0 -0 0)
(0 -0 0)
(0 -0 -3.2632652e-15)
(0 -0 0)
(0 -0 0)
(0 -0 0)
(0 -0 0)
(0 -0 0)
(0 -0 0)
(0 -0 0)
(0 -0 0)
(0 -0 0)
(0 -0 1.6316326e-15)
(0 -0 0)
(0 -0 0)
(0 -0 0)
(0 -0 0)
(0 -0 0)
(0 -0 0)
(0 -0 1.6316326e-15)
(0 -0 0)
(0 -0 0)
(0 -0 0)
(0 -0 0)
(0 -0 0)
(0 -0 0)
(0 -0 0)
(0 -0 1.6316326e-15)
(0 -0 0)
(0 -0 0)
(0 -0 0)
(0 -0 0)
(0 -0 0)
(0 -0 0)
(0 -0 0)
(0 -0 0)
(0 -0 0)
(0 -0 0)
(0 -0 0)
(0 -0 0)
(0 -0 0)
(0 -0 0)
(0 -0 0)
(0 -0 0)
(0 -0 0)
(0 -0 0)
(0 -0 0)
(0 -0 0)
(0 -0 0)
(0 -0 0)
(0 -0 0)
(0 -0 0)
(0 -0 0)
(0 -0 0)
(0 -0 0)
(0 -0 0)
(0 -0 0)
(0 -0 0)
(0 -0 0)
(0 -0 0)
(0 -0 0)
(0 -0 0)
(0 -0 0)
(0 -0 0)
(0 -0 0)
(0 -0 -5.3473264e-15)
(-1.5918621e-20 -7.9593105e-20 -1.6340464e-15)
(0 -0 -1.8673113e-15)
(0 -0 1.0412272e-14)
(0 -0 -1.0831855e-14)
(2.4839844e-19 1.2419922e-18 3.6887168e-15)
(-3.9024964e-18 -1.9512482e-17 -8.2440236e-15)
(9.6404792e-18 4.8202396e-17 2.4101198e-15)
(-3.9119736e-18 -1.9559868e-17 5.0855657e-15)
(0 -0 -2.5038504e-15)
(-4.0206192e-18 -2.0103096e-17 9.6494861e-15)
(-5.8694464e-18 -2.9347232e-17 7.2834494e-15)
(6.3010821e-18 3.150541e-17 1.496507e-15)
(-9.9539438e-18 -4.9769719e-17 -2.5932643e-15)
(1.8670691e-18 9.3353454e-18 3.0673278e-16)
(3.23899e-18 1.619495e-17 -1.3819691e-14)
(-5.4556163e-19 -2.7278081e-18 6.8276185e-15)
(-2.7427948e-19 -1.3713974e-18 -4.4000428e-15)
(-3.9550416e-19 -1.9775208e-18 -6.9127249e-16)
(6.8872248e-20 3.4436124e-19 -7.0525182e-15)
(0 -0 0)
(0 -0 0)
(0 -0 0)
(0 -0 0)
(0 -0 0)
(0 -0 0)
(0 -0 0)
(0 -0 0)
(0 -0 0)
(0 -0 0)
(0 -0 0)
(0 -0 0)
(0 -0 0)
(0 -0 0)
(0 -0 0)
(0 -0 0)
(0 -0 0)
(0 -0 0)
(0 -0 0)
(0 -0 0)
(0 -0 0)
(0 -0 0)
(0 -0 0)
(0 -0 0)
(0 -0 0)
(0 -0 0)
(0 -0 0)
(0 -0 0)
(0 -0 0)
(0 -0 0)
(0 -0 0)
(0 -0 0)
(0 -0 0)
(0 -0 0)
(0 -0 0)
(0 -0 0)
(0 -0 0)
(0 -0 0)
(0 -0 0)
(0 -0 0)
(0 -0 0)
(0 -0 0)
(0 -0 0)
(0 -0 0)
(0 -0 0)
(0 -0 0)
(0 -0 0)
(0 -0 0)
(0 -0 0)
(0 -0 0)
(0 -0 0)
(0 -0 0)
(0 -0 0)
(0 -0 0)
(0 -0 0)
(0 -0 0)
(0 -0 0)
(0 -0 0)
(0 -0 0)
(0 -0 0)
(0 -0 0)
(0 -0 0)
(0 -0 0)
(0 -0 0)
(0 -0 0)
(0 -0 0)
(0 -0 0)
(0 -0 0)
(0 -0 0)
(0 -0 0)
(0 -0 0)
(0 -0 0)
(0 -0 0)
(0 -0 0)
(0 -0 0)
(0 -0 0)
(0 -0 0)
(0 -0 0)
(0 -0 0)
(0 -0 0)
(0 -0 0)
(0 -0 0)
(0 -0 0)
(0 -0 0)
(0 -0 0)
(0 -0 0)
(0 -0 0)
(0 -0 0)
(0 -0 0)
(0 -0 0)
(0 -0 0)
(0 -0 0)
(0 -0 0)
(0 -0 0)
(0 -0 0)
(0 -0 0)
(0 -0 0)
(0 -0 0)
(0 -0 0)
(0 -0 0)
(0 -0 0)
(0 -0 0)
(0 -0 0)
(0 -0 0)
(0 -0 0)
(0 -0 0)
(0 -0 0)
(0 -0 0)
(0 -0 0)
(0 -0 0)
(0 -0 0)
(0 -0 0)
(0 -0 0)
(0 -0 0)
(0 -0 0)
(0 -0 0)
(0 -0 0)
(0 -0 0)
(0 -0 0)
(0 -0 0)
(0 -0 0)
(0 -0 0)
(0 -0 0)
(0 -0 0)
(0 -0 0)
(0 -0 0)
(0 -0 0)
(0 -0 0)
(0 -0 0)
(0 -0 0)
(0 -0 0)
(0 -0 0)
(0 -0 0)
(0 -0 0)
(0 -0 0)
(0 -0 0)
(0 -0 0)
(0 -0 0)
(0 -0 0)
(0 -0 0)
(0 -0 0)
(0 -0 0)
(0 -0 0)
(0 -0 0)
(0 -0 0)
(0 -0 0)
(0 -0 0)
(0 -0 0)
(0 -0 0)
(0 -0 0)
(0 -0 0)
(0 -0 0)
(0 -0 0)
(0 -0 0)
(0 -0 0)
(0 -0 0)
(0 -0 0)
(0 -0 0)
(0 -0 0)
(0 -0 0)
(0 -0 0)
(0 -0 0)
(0 -0 0)
(0 -0 0)
(0 -0 0)
(0 -0 0)
(0 -0 0)
(0 -0 0)
(0 -0 0)
(0 -0 0)
(0 -0 0)
(0 -0 0)
(0 -0 0)
(0 -0 0)
(0 -0 0)
(0 -0 0)
(0 -0 0)
(-3.440506e-20 -1.720253e-19 7.737698e-15)
(3.4283402e-20 1.7141701e-19 -2.6209661e-15)
(2.1821925e-18 1.0910962e-17 1.5556646e-16)
(-2.1926582e-18 -1.0963291e-17 -6.9085599e-15)
(-2.6667905e-19 -1.3333953e-18 6.5203029e-15)
(0 -0 -5.7906995e-15)
(2.1005675e-18 1.0502837e-17 -6.5380162e-15)
(-2.1343998e-18 -1.0671999e-17 -7.2836392e-15)
(1.148396e-18 5.7419798e-18 -8.1392564e-15)
(-4.9287182e-18 -2.4643591e-17 -8.3172119e-16)
(0 -0 -1.2639027e-15)
(-2.1335663e-18 -1.0667831e-17 -1.9335444e-15)
(0 -0 4.472843e-15)
(4.1728547e-18 2.0864274e-17 -9.075959e-15)
(-3.9126037e-18 -1.9563019e-17 5.8689056e-15)
(3.698247e-18 1.8491235e-17 -4.6228087e-15)
(0 -0 2.5711271e-15)
(-7.7085716e-18 -3.8542858e-17 -6.5522859e-15)
(5.2558324e-18 2.6279162e-17 1.3139581e-15)
(5.7638747e-18 2.8819373e-17 -1.1003761e-15)
(-1.0728598e-17 -5.3642988e-17 1.4629906e-15)
(0 -0 1.9651331e-15)
(0 -0 -8.9035752e-15)
(5.9627e-18 2.98135e-17 2.206199e-14)
(-2.135698e-18 -1.067849e-17 1.2013301e-15)
(-2.1590825e-18 -1.0795413e-17 -1.3089438e-15)
(-1.7616701e-18 -8.8083504e-18 -1.7465701e-14)
(1.2079373e-18 6.0396864e-18 -1.4132866e-15)
(2.4293904e-19 1.2146952e-18 0)
(0 -0 5.8852867e-15)
(0 -0 2.136195e-15)
(2.745698e-19 1.372849e-18 -3.36348e-16)
(2.5422587e-19 1.2711294e-18 1.3156189e-15)
(-2.4352128e-19 -1.2176064e-18 -1.5585362e-15)
(0 -0 1.5599382e-15)
(-2.5467032e-19 -1.2733516e-18 -1.465946e-15)
(0 -0 -8.9287087e-16)
(0 -0 5.3531047e-16)
(0 -0 1.6308676e-15)
(0 -0 -1.5604841e-15)
(0 -0 1.5606401e-15)
(0 -0 0)
(0 -0 0)
(0 -0 0)
(0 -0 0)
(0 -0 0)
(0 -0 0)
(0 -0 0)
(0 -0 0)
(0 -0 0)
(0 -0 0)
(0 -0 0)
(0 -0 0)
(0 -0 0)
(0 -0 0)
(0 -0 0)
(0 -0 8.0476796e-16)
(0 -0 4.7403087e-16)
(0 -0 0)
(0 -0 0)
(0 -0 0)
(0 -0 0)
(0 -0 0)
(0 -0 0)
(0 -0 1.5665516e-15)
(-6.1184245e-20 -3.0592123e-19 -1.5663167e-15)
(6.1153675e-20 3.0576837e-19 0)
(0 -0 1.5631909e-15)
(1.7010458e-18 8.5052289e-18 4.7325524e-15)
(-9.6061285e-19 -4.8030642e-18 1.8011491e-15)
(-1.879673e-18 -9.3983648e-18 4.2292642e-16)
(9.1736175e-18 4.5868087e-17 -8.0727834e-15)
(-7.3391059e-18 -3.669553e-17 5.3208518e-15)
(5.783768e-18 2.891884e-17 1.5423381e-15)
(-1.9508777e-18 -9.7543885e-18 5.5600015e-15)
(-1.8708481e-18 -9.3542407e-18 -1.2277441e-15)
(-9.5439321e-19 -4.7719661e-18 -4.9926695e-15)
(2.2348173e-18 1.1174086e-17 2.3838051e-15)
(-2.1368502e-18 -1.0684251e-17 1.629034e-14)
(-1.2082153e-19 -6.0410765e-19 -1.9838895e-14)
(7.2904837e-19 3.6452418e-18 7.9101748e-15)
(-9.6051625e-19 -4.8025813e-18 -1.1946421e-15)
(1.8796837e-18 9.3984186e-18 -4.1235562e-15)
(0 -0 6.6912985e-15)
(0 -0 6.8075833e-15)
(7.4725404e-19 3.7362702e-18 -1.8001038e-14)
(-4.8491159e-19 -2.4245579e-18 -2.7170691e-15)
(-5.4961711e-19 -2.7480856e-18 -1.5633553e-15)
(5.4673629e-19 2.7336815e-18 6.3542907e-15)
(5.0673193e-19 2.5336597e-18 1.824235e-15)
(-5.0842509e-19 -2.5421254e-18 -6.4379327e-15)
(-2.7398574e-19 -1.3699287e-18 6.2346977e-15)
(-2.4377483e-19 -1.2188741e-18 -4.7383732e-16)
(2.8653234e-19 1.4326617e-18 7.0041239e-17)
(-2.5481015e-19 -1.2740508e-18 1.630785e-15)
(0 -0 0)
(0 -0 0)
(0 -0 1.5664074e-15)
(0 -0 0)
(2.5042625e-19 1.2521312e-18 0)
(0 -0 0)
(0 -0 0)
(0 -0 1.6337757e-15)
(0 -0 0)
(0 -0 0)
(-1.5938114e-20 -7.9690572e-20 0)
(0 -0 1.9182373e-14)
(-5.0328303e-19 -2.5164152e-18 -6.1180344e-15)
(4.9298367e-19 2.4649183e-18 -5.955859e-15)
(-7.4769847e-19 -3.7384924e-18 5.0158106e-16)
(0 -0 6.6727429e-15)
(0 -0 0)
(0 -0 0)
(0 -0 4.960185e-16)
(-6.2535234e-20 -3.1267617e-19 1.2761096e-15)
(6.2597747e-20 3.1298874e-19 0)
(0 -0 4.9639044e-16)
(0 -0 0)
(0 -0 0)
(0 -0 0)
(0 -0 0)
(0 -0 0)
(0 -0 0)
(0 -0 0)
(0 -0 -1.6530388e-15)
(0 -0 0)
(0 -0 1.6530388e-15)
(0 -0 0)
(0 -0 0)
(0 -0 0)
(0 -0 0)
(0 -0 0)
(0 -0 0)
(0 -0 0)
(0 -0 0)
(0 -0 0)
(0 -0 0)
(0 -0 0)
(0 -0 0)
(0 -0 0)
(0 -0 0)
(0 -0 0)
(0 -0 0)
(0 -0 0)
(0 -0 0)
(0 -0 0)
(0 -0 0)
(0 -0 0)
(0 -0 0)
(0 -0 0)
(0 -0 0)
(0 -0 0)
(0 -0 0)
(0 -0 0)
(0 -0 0)
(0 -0 0)
(0 -0 0)
(0 -0 0)
(0 -0 0)
(0 -0 0)
(0 -0 0)
(0 -0 0)
(0 -0 0)
(0 -0 0)
(0 -0 0)
(0 -0 0)
(0 -0 1.6337757e-15)
(0 -0 0)
(0 -0 0)
(0 -0 0)
(0 -0 0)
(0 -0 0)
(0 -0 -1.6337757e-15)
(0 -0 0)
(0 -0 0)
(0 -0 0)
(0 -0 -1.6530388e-15)
(0 -0 0)
(0 -0 1.6530388e-15)
(0 -0 0)
(0 -0 0)
(0 -0 0)
(0 -0 0)
(0 -0 0)
(0 -0 0)
(0 -0 0)
(0 -0 0)
(0 -0 0)
(0 -0 -1.6530388e-15)
(0 -0 0)
(0 -0 1.6530388e-15)
(0 -0 0)
(0 -0 0)
(0 -0 0)
(0 -0 0)
(0 -0 0)
(0 -0 0)
(0 -0 0)
(0 -0 0)
(0 -0 0)
(0 -0 0)
(0 -0 0)
(0 -0 0)
(0 -0 0)
(0 -0 0)
(0 -0 0)
(0 -0 0)
(0 -0 1.6346626e-15)
(0 -0 0)
(0 -0 0)
(0 -0 0)
(0 -0 0)
(0 -0 0)
(0 -0 0)
(0 -0 0)
(0 -0 0)
(0 -0 0)
(0 -0 0)
(0 -0 0)
(0 -0 0)
(0 -0 0)
(0 -0 0)
(0 -0 0)
(0 -0 0)
(0 -0 0)
(0 -0 0)
(0 -0 0)
(0 -0 0)
(0 -0 0)
(0 -0 0)
(0 -0 0)
(0 -0 0)
(0 -0 0)
(0 -0 0)
(0 -0 0)
(0 -0 0)
(0 -0 0)
(0 -0 0)
(0 -0 0)
(0 -0 0)
(0 -0 0)
(0 -0 0)
(0 -0 0)
(0 -0 0)
(0 -0 0)
(0 -0 0)
(0 -0 0)
(0 -0 0)
(0 -0 0)
(0 -0 0)
(0 -0 0)
(0 -0 0)
(0 -0 0)
(0 -0 0)
(0 -0 0)
(0 -0 0)
(0 -0 0)
(0 -0 0)
(0 -0 0)
(0 -0 0)
(0 -0 0)
(0 -0 0)
(0 -0 0)
(0 -0 0)
(0 -0 0)
(0 -0 0)
(0 -0 0)
(0 -0 0)
(0 -0 0)
(0 -0 0)
(0 -0 0)
(0 -0 0)
(0 -0 0)
(0 -0 0)
(0 -0 0)
(0 -0 0)
(0 -0 0)
(0 -0 0)
(0 -0 0)
(0 -0 0)
(0 -0 0)
(0 -0 0)
(0 -0 0)
(0 -0 0)
(0 -0 0)
(0 -0 0)
(0 -0 0)
(0 -0 0)
(0 -0 0)
(0 -0 0)
(0 -0 0)
(0 -0 0)
(0 -0 0)
(0 -0 0)
(0 -0 0)
(0 -0 0)
(0 -0 0)
(0 -0 0)
(0 -0 0)
(0 -0 0)
(0 -0 0)
(0 -0 0)
(0 -0 0)
(0 -0 0)
(0 -0 0)
(0 -0 0)
(0 -0 0)
(0 -0 0)
(0 -0 0)
(0 -0 0)
(0 -0 0)
(0 -0 0)
(0 -0 0)
(0 -0 0)
(0 -0 0)
(0 -0 0)
(0 -0 0)
(0 -0 0)
(0 -0 0)
(0 -0 0)
(0 -0 0)
(0 -0 0)
(0 -0 0)
(0 -0 0)
(0 -0 0)
(0 -0 0)
(0 -0 0)
(0 -0 0)
(0 -0 0)
(0 -0 0)
(0 -0 0)
(0 -0 0)
(0 -0 0)
(0 -0 0)
(0 -0 0)
(0 -0 0)
(0 -0 0)
(0 -0 0)
(0 -0 0)
(0 -0 0)
(0 -0 0)
(0 -0 0)
(0 -0 0)
(0 -0 0)
(0 -0 0)
(0 -0 0)
(0 -0 0)
(0 -0 0)
(0 -0 0)
(0 -0 0)
(0 -0 0)
(0 -0 0)
(0 -0 0)
(0 -0 0)
(0 -0 0)
(0 -0 0)
(0 -0 0)
(0 -0 0)
(0 -0 1.6337757e-15)
(0 -0 0)
(0 -0 0)
(0 -0 0)
(0 -0 0)
(0 -0 0)
(0 -0 -1.6337757e-15)
(0 -0 0)
(0 -0 0)
(0 -0 0)
(0 -0 -1.6530388e-15)
(0 -0 0)
(0 -0 1.6530388e-15)
(0 -0 0)
(0 -0 0)
(0 -0 0)
(0 -0 0)
(0 -0 0)
(0 -0 0)
(0 -0 0)
(0 -0 0)
(0 -0 0)
(0 -0 -1.6530388e-15)
(0 -0 0)
(0 -0 1.6530388e-15)
(0 -0 0)
(0 -0 0)
(0 -0 0)
(0 -0 0)
(0 -0 0)
(0 -0 0)
(0 -0 0)
(0 -0 0)
(0 -0 0)
(0 -0 0)
(0 -0 0)
(0 -0 0)
(0 -0 0)
(0 -0 0)
(0 -0 0)
(0 -0 0)
(0 -0 0)
(0 -0 0)
(0 -0 0)
(0 -0 0)
(0 -0 0)
(0 -0 0)
(0 -0 0)
(0 -0 0)
(0 -0 0)
(0 -0 0)
(0 -0 0)
(0 -0 0)
(0 -0 0)
(0 -0 0)
(0 -0 0)
(0 -0 0)
(0 -0 0)
(0 -0 0)
(0 -0 0)
(0 -0 0)
(0 -0 0)
(0 -0 0)
(0 -0 0)
(0 -0 1.6337757e-15)
(0 -0 0)
(0 -0 0)
(0 -0 0)
(0 -0 0)
(0 -0 0)
(0 -0 -1.6337757e-15)
(0 -0 0)
(0 -0 0)
(0 -0 0)
(0 -0 -1.6530388e-15)
(0 -0 0)
(0 -0 1.6530388e-15)
(0 -0 0)
(0 -0 0)
(0 -0 0)
(0 -0 0)
(0 -0 0)
(0 -0 0)
(0 -0 0)
(0 -0 0)
(0 -0 0)
(0 -0 -1.6530388e-15)
(0 -0 0)
(0 -0 1.6530388e-15)
(0 -0 0)
(0 -0 0)
(0 -0 0)
(0 -0 0)
(0 -0 0)
(0 -0 0)
(0 -0 0)
(0 -0 0)
(0 -0 0)
(0 -0 0)
(0 -0 0)
(0 -0 0)
(0 -0 0)
(0 -0 0)
(0 -0 0)
(0 -0 0)
(0 -0 0)
(0 -0 0)
(0 -0 0)
(0 -0 0)
(0 -0 0)
(0 -0 0)
(0 -0 0)
(0 -0 0)
(0 -0 0)
(0 -0 0)
(0 -0 0)
(0 -0 0)
(0 -0 0)
(0 -0 0)
(0 -0 0)
(0 -0 0)
(0 -0 0)
(0 -0 0)
(0 -0 0)
(0 -0 0)
(0 -0 0)
(0 -0 0)
(0 -0 0)
(0 -0 0)
(0 -0 0)
(0 -0 0)
(0 -0 0)
(0 -0 0)
(0 -0 0)
(0 -0 0)
(0 -0 0)
(0 -0 0)
(0 -0 0)
(0 -0 0)
(0 -0 0)
(0 -0 0)
(0 -0 0)
(0 -0 0)
(0 -0 0)
(0 -0 0)
(0 -0 0)
(0 -0 0)
(0 -0 0)
(0 -0 0)
(0 -0 0)
(0 -0 0)
(0 -0 0)
(0 -0 0)
(0 -0 0)
(0 -0 0)
(0 -0 0)
(0 -0 0)
(0 -0 0)
(0 -0 0)
(0 -0 0)
(0 -0 0)
(0 -0 0)
(0 -0 0)
(0 -0 0)
(0 -0 0)
(0 -0 0)
(0 -0 0)
(0 -0 0)
(0 -0 0)
(0 -0 0)
(0 -0 0)
(0 -0 0)
(0 -0 0)
(0 -0 0)
(0 -0 0)
(0 -0 0)
(0 -0 0)
(0 -0 0)
(0 -0 0)
(0 -0 0)
(0 -0 0)
(0 -0 0)
(0 -0 0)
(0 -0 0)
(0 -0 0)
(0 -0 0)
(0 -0 0)
(0 -0 0)
(0 -0 0)
(0 -0 0)
(0 -0 0)
(0 -0 0)
(0 -0 0)
(0 -0 0)
(0 -0 0)
(0 -0 0)
(0 -0 0)
(0 -0 0)
(0 -0 0)
(0 -0 0)
(0 -0 0)
(0 -0 0)
(0 -0 0)
(0 -0 0)
(0 -0 0)
(0 -0 0)
(0 -0 0)
(0 -0 0)
(0 -0 0)
(0 -0 0)
(0 -0 0)
(0 -0 0)
(0 -0 0)
(0 -0 0)
(0 -0 0)
(0 -0 0)
(0 -0 0)
(0 -0 0)
(0 -0 0)
(0 -0 0)
(0 -0 0)
(0 -0 0)
(0 -0 0)
(0 -0 0)
(0 -0 0)
(0 -0 0)
(0 -0 0)
(0 -0 0)
(0 -0 0)
(0 -0 0)
(0 -0 0)
(0 -0 0)
(0 -0 0)
(0 -0 0)
(0 -0 0)
(0 -0 0)
(0 -0 0)
(0 -0 0)
(0 -0 0)
(0 -0 0)
(0 -0 0)
(0 -0 0)
(0 -0 0)
(0 -0 4.7582644e-16)
(6.0977748e-20 3.0488874e-19 1.2439461e-15)
(0 -0 6.5991538e-16)
(6.8946684e-20 3.4473342e-19 -3.5852276e-16)
(-6.9039958e-20 -3.4519979e-19 -2.4664525e-15)
(2.5523127e-19 1.2761563e-18 1.175659e-15)
(-6.1002154e-20 -3.0501077e-19 1.5616551e-15)
(-2.4410104e-19 -1.2205052e-18 6.2489865e-15)
(-5.1138297e-19 -2.5569149e-18 -1.2720651e-15)
(5.5433555e-19 2.7716777e-18 -9.9780399e-16)
(-8.371601e-19 -4.1858005e-18 2.4417169e-15)
(2.8232164e-18 1.4116082e-17 -1.2191162e-15)
(9.777041e-19 4.8885205e-18 -6.7217157e-17)
(-4.9016737e-19 -2.4508369e-18 -7.9100759e-15)
(-2.5809745e-18 -1.2904873e-17 -5.8846219e-15)
(0 -0 2.2316678e-15)
(-8.0569763e-18 -4.0284881e-17 1.6689451e-15)
(-1.0403408e-18 -5.2017039e-18 5.7218743e-16)
(0 -0 -6.7544987e-17)
(0 -0 6.2805961e-15)
(-1.0470476e-17 -5.2352379e-17 6.1775807e-15)
(1.1798204e-17 5.8991019e-17 1.1798204e-16)
(3.8422732e-17 1.9211366e-16 -4.8028415e-16)
(8.3227974e-18 4.1613987e-17 -8.7389373e-15)
(-7.7834689e-18 -3.8917345e-17 1.7512805e-15)
(9.517959e-18 4.7589795e-17 -6.7577509e-15)
(-2.0008821e-18 -1.000441e-17 -8.0035283e-16)
(-4.2494047e-17 -2.1247023e-16 1.4164682e-15)
(-6.3883004e-17 -3.1941502e-16 6.7875692e-15)
(2.9231681e-17 1.4615841e-16 1.096188e-15)
(1.4747266e-17 7.3736331e-17 -2.7651124e-15)
(-7.1204972e-18 -3.5602486e-17 4.2722983e-15)
(-3.9641638e-17 -1.9820819e-16 1.3213879e-15)
(4.8207106e-17 2.4103553e-16 -5.6241623e-15)
(-4.6151005e-17 -2.3075502e-16 -1.9181511e-14)
(9.274436e-17 4.637218e-16 -1.6230263e-14)
(1.0472783e-17 5.2363915e-17 1.256734e-14)
(6.7475406e-17 3.3737703e-16 -2.4098359e-14)
(-1.7515721e-16 -8.7578604e-16 3.2841976e-16)
(-4.0673247e-18 -2.0336624e-17 -1.4642369e-14)
(0 -0 -1.3689031e-14)
(8.3328492e-18 4.1664246e-17 1.8332268e-14)
(0 -0 -1.1890607e-14)
(8.2886487e-18 4.1443243e-17 -1.3261838e-14)
(0 -0 -3.0291336e-15)
(0 -0 6.1389682e-15)
(-4.1438825e-18 -2.0719413e-17 0)
(-1.1497258e-16 -5.7486288e-16 7.439402e-15)
(-8.1757638e-18 -4.0878819e-17 -4.0878819e-15)
(0 -0 3.7032256e-15)
(6.5975194e-17 3.2987597e-16 3.2987597e-14)
(1.0752892e-18 5.3764462e-18 -2.6882231e-15)
(-2.2143559e-18 -1.1071779e-17 -3.5429694e-15)
(-4.452386e-18 -2.226193e-17 2.7201958e-14)
(4.7767477e-18 2.3883739e-17 -3.0571185e-14)
(-7.1795696e-18 -3.5897848e-17 -2.7521683e-14)
(5.207738e-17 2.603869e-16 5.207738e-15)
(9.1233364e-18 4.5616682e-17 7.7548359e-15)
(3.6817079e-18 1.840854e-17 3.0190005e-14)
(6.8402737e-17 3.4201368e-16 -1.7100684e-15)
(4.0117844e-18 2.0058922e-17 1.2608465e-15)
(1.2501004e-17 6.250502e-17 3.3923179e-14)
(-1.2206089e-18 -6.1030447e-18 -5.7504243e-15)
(-6.7668344e-20 -3.3834172e-19 1.4887036e-15)
(-1.8669045e-18 -9.3345224e-18 3.0057162e-14)
(2.6024696e-18 1.3012348e-17 -1.1190619e-15)
(-1.0055203e-18 -5.0276017e-18 2.8632192e-14)
(0 -0 1.6848413e-14)
(-5.1547733e-18 -2.5773866e-17 -6.1341802e-15)
(4.4465803e-18 2.2232901e-17 8.4554503e-15)
(0 -0 5.5852335e-15)
(1.0255157e-18 5.1275784e-18 -2.3433033e-14)
(0 -0 -4.1492724e-15)
(-9.8074709e-19 -4.9037355e-18 -3.0305085e-14)
(0 -0 3.7839025e-14)
(2.2168816e-18 1.1084408e-17 1.9397714e-16)
(0 -0 -1.5222771e-15)
(0 -0 -1.4021317e-15)
(0 -0 0)
(0 -0 0)
(8.6227059e-19 4.311353e-18 1.0839973e-15)
(1.2422557e-19 6.2112787e-19 -1.7987863e-14)
(1.5266953e-18 7.6334765e-18 -3.1170029e-14)
(-2.3481802e-18 -1.1740901e-17 8.1142672e-15)
(1.0528084e-18 5.264042e-18 -5.5798845e-15)
(0 -0 0)
(0 -0 0)
(-1.0070261e-18 -5.0351307e-18 6.4449673e-15)
(0 -0 5.045721e-15)
(0 -0 0)
(0 -0 0)
(0 -0 0)
(0 -0 0)
(0 -0 -6.4161025e-15)
(0 -0 0)
(0 -0 4.9045731e-15)
(0 -0 -6.5171435e-15)
(0 -0 -1.5201442e-15)
(0 -0 -1.5195359e-15)
(0 -0 0)
(0 -0 6.2441214e-15)
(0 -0 0)
(0 -0 0)
(0 -0 7.071334e-15)
(0 -0 0)
(0 -0 0)
(0 -0 0)
(0 -0 0)
(0 -0 0)
(0 -0 0)
(0 -0 0)
(0 -0 0)
(0 -0 0)
(0 -0 0)
(0 -0 0)
(0 -0 0)
(0 -0 0)
(0 -0 0)
(0 -0 0)
(0 -0 0)
(0 -0 0)
(0 -0 0)
(0 -0 0)
(0 -0 0)
(0 -0 6.6694667e-15)
(1.3191772e-19 6.5958862e-19 0)
(0 -0 0)
(0 -0 1.2000131e-15)
(1.0916185e-18 5.4580923e-18 0)
(-5.7406868e-19 -2.8703434e-18 7.3480791e-15)
(1.1467835e-18 5.7339174e-18 1.2327922e-15)
(-8.1954471e-17 -4.0977235e-16 -3.9142434e-15)
(7.0864377e-17 3.5432188e-16 4.0563747e-14)
(-6.8995408e-18 -3.4497704e-17 2.7598163e-15)
(1.6348119e-17 8.1740593e-17 -5.6050692e-15)
(0 -0 5.3211887e-15)
(0 -0 -1.4881289e-15)
(-2.8841659e-19 -1.4420829e-18 8.6524976e-15)
(8.6267171e-18 4.3133585e-17 -5.4635875e-15)
(0 -0 0)
(-5.4471565e-19 -2.7235783e-18 0)
(0 -0 0)
(0 -0 0)
(0 -0 0)
(0 -0 0)
(0 -0 0)
(0 -0 0)
(0 -0 0)
(0 -0 0)
(0 -0 0)
(0 -0 0)
(0 -0 0)
(2.7313392e-19 1.3656696e-18 -6.9922283e-15)
(-5.463833e-19 -2.7319165e-18 6.9937063e-15)
(5.7598999e-19 2.87995e-18 -7.3726719e-15)
(5.7571034e-19 2.8785517e-18 3.0080865e-15)
(-7.730493e-17 -3.8652465e-16 1.3497686e-15)
(8.6066941e-18 4.303347e-17 -4.9181109e-16)
(1.8730711e-17 9.3653556e-17 -7.4922845e-15)
(-1.4800837e-17 -7.4004183e-17 3.7002092e-16)
(-1.5189581e-17 -7.5947905e-17 -7.5947905e-16)
(7.7029362e-18 3.8514681e-17 8.1362264e-15)
(-7.3063301e-18 -3.6531651e-17 1.9483547e-16)
(3.9184105e-18 1.9592053e-17 1.5673642e-15)
(0 -0 -7.8444335e-15)
(-4.901265e-19 -2.4506325e-18 7.842024e-15)
(4.9000133e-19 2.4500066e-18 -6.272017e-15)
(0 -0 1.5675705e-15)
(0 -0 0)
(0 -0 3.0414233e-16)
(0 -0 4.9651455e-16)
(0 -0 0)
(0 -0 0)
(0 -0 9.930291e-16)
(-6.2632183e-20 -3.1316091e-19 -3.2568735e-16)
(-6.2650982e-20 -3.1325491e-19 8.0976394e-16)
(-6.3866779e-20 -3.1933389e-19 -3.3210725e-16)
(0 -0 5.0047084e-16)
(0 -0 0)
(0 -0 0)
(0 -0 0)
(0 -0 0)
(0 -0 0)
(0 -0 0)
(0 -0 0)
(0 -0 0)
(0 -0 0)
(0 -0 0)
(0 -0 0)
(0 -0 0)
(0 -0 0)
(0 -0 0)
(0 -0 0)
(0 -0 0)
(0 -0 -6.4684617e-16)
(6.3866779e-20 3.1933389e-19 -4.7740417e-16)